
                                 *****************
                                 * O   R   C   A *
                                 *****************

                                            #,                                       
                                            ###                                      
                                            ####                                     
                                            #####                                    
                                            ######                                   
                                           ########,                                 
                                     ,,################,,,,,                         
                               ,,#################################,,                 
                          ,,##########################################,,             
                       ,#########################################, ''#####,          
                    ,#############################################,,   '####,        
                  ,##################################################,,,,####,       
                ,###########''''           ''''###############################       
              ,#####''   ,,,,##########,,,,          '''####'''          '####       
            ,##' ,,,,###########################,,,                        '##       
           ' ,,###''''                  '''############,,,                           
         ,,##''                                '''############,,,,        ,,,,,,###''
      ,#''                                            '''#######################'''  
     '                                                          ''''####''''         
             ,#######,   #######,   ,#######,      ##                                
            ,#'     '#,  ##    ##  ,#'     '#,    #''#        ######   ,####,        
            ##       ##  ##   ,#'  ##            #'  '#       #        #'  '#        
            ##       ##  #######   ##           ,######,      #####,   #    #        
            '#,     ,#'  ##    ##  '#,     ,#' ,#      #,         ##   #,  ,#        
             '#######'   ##     ##  '#######'  #'      '#     #####' # '####'        



                  #######################################################
                  #                        -***-                        #
                  #          Department of theory and spectroscopy      #
                  #    Directorship and core code : Frank Neese         #
                  #        Max Planck Institute fuer Kohlenforschung    #
                  #                Kaiser Wilhelm Platz 1               #
                  #                 D-45470 Muelheim/Ruhr               #
                  #                      Germany                        #
                  #                                                     #
                  #                  All rights reserved                #
                  #                        -***-                        #
                  #######################################################


                         Program Version 5.0.1 -  RELEASE  -


 With contributions from (in alphabetic order):
   Daniel Aravena         : Magnetic Suceptibility
   Michael Atanasov       : Ab Initio Ligand Field Theory (pilot matlab implementation)
   Alexander A. Auer      : GIAO ZORA, VPT2 properties, NMR spectrum
   Ute Becker             : Parallelization
   Giovanni Bistoni       : ED, misc. LED, open-shell LED, HFLD
   Martin Brehm           : Molecular dynamics
   Dmytro Bykov           : SCF Hessian
   Vijay G. Chilkuri      : MRCI spin determinant printing, contributions to CSF-ICE
   Dipayan Datta          : RHF DLPNO-CCSD density
   Achintya Kumar Dutta   : EOM-CC, STEOM-CC
   Dmitry Ganyushin       : Spin-Orbit,Spin-Spin,Magnetic field MRCI
   Miquel Garcia          : C-PCM and meta-GGA Hessian, CC/C-PCM, Gaussian charge scheme
   Yang Guo               : DLPNO-NEVPT2, F12-NEVPT2, CIM, IAO-localization
   Andreas Hansen         : Spin unrestricted coupled pair/coupled cluster methods
   Benjamin Helmich-Paris : MC-RPA, TRAH-SCF, COSX integrals
   Lee Huntington         : MR-EOM, pCC
   Robert Izsak           : Overlap fitted RIJCOSX, COSX-SCS-MP3, EOM
   Marcus Kettner         : VPT2
   Christian Kollmar      : KDIIS, OOCD, Brueckner-CCSD(T), CCSD density, CASPT2, CASPT2-K
   Simone Kossmann        : Meta GGA functionals, TD-DFT gradient, OOMP2, MP2 Hessian
   Martin Krupicka        : Initial AUTO-CI
   Lucas Lang             : DCDCAS
   Marvin Lechner         : AUTO-CI (C++ implementation), FIC-MRCC
   Dagmar Lenk            : GEPOL surface, SMD
   Dimitrios Liakos       : Extrapolation schemes; Compound Job, initial MDCI parallelization
   Dimitrios Manganas     : Further ROCIS development; embedding schemes
   Dimitrios Pantazis     : SARC Basis sets
   Anastasios Papadopoulos: AUTO-CI, single reference methods and gradients
   Taras Petrenko         : DFT Hessian,TD-DFT gradient, ASA, ECA, R-Raman, ABS, FL, XAS/XES, NRVS
   Peter Pinski           : DLPNO-MP2, DLPNO-MP2 Gradient
   Christoph Reimann      : Effective Core Potentials
   Marius Retegan         : Local ZFS, SOC
   Christoph Riplinger    : Optimizer, TS searches, QM/MM, DLPNO-CCSD(T), (RO)-DLPNO pert. Triples
   Tobias Risthaus        : Range-separated hybrids, TD-DFT gradient, RPA, STAB
   Michael Roemelt        : Original ROCIS implementation
   Masaaki Saitow         : Open-shell DLPNO-CCSD energy and density
   Barbara Sandhoefer     : DKH picture change effects
   Avijit Sen             : IP-ROCIS
   Kantharuban Sivalingam : CASSCF convergence, NEVPT2, FIC-MRCI
   Bernardo de Souza      : ESD, SOC TD-DFT
   Georgi Stoychev        : AutoAux, RI-MP2 NMR, DLPNO-MP2 response
   Willem Van den Heuvel  : Paramagnetic NMR
   Boris Wezisla          : Elementary symmetry handling
   Frank Wennmohs         : Technical directorship


 We gratefully acknowledge several colleagues who have allowed us to
 interface, adapt or use parts of their codes:
   Stefan Grimme, W. Hujo, H. Kruse, P. Pracht,  : VdW corrections, initial TS optimization,
                  C. Bannwarth, S. Ehlert          DFT functionals, gCP, sTDA/sTD-DF
   Ed Valeev, F. Pavosevic, A. Kumar             : LibInt (2-el integral package), F12 methods
   Garnet Chan, S. Sharma, J. Yang, R. Olivares  : DMRG
   Ulf Ekstrom                                   : XCFun DFT Library
   Mihaly Kallay                                 : mrcc  (arbitrary order and MRCC methods)
   Jiri Pittner, Ondrej Demel                    : Mk-CCSD
   Frank Weinhold                                : gennbo (NPA and NBO analysis)
   Christopher J. Cramer and Donald G. Truhlar   : smd solvation model
   Lars Goerigk                                  : TD-DFT with DH, B97 family of functionals
   V. Asgeirsson, H. Jonsson                     : NEB implementation
   FAccTs GmbH                                   : IRC, NEB, NEB-TS, DLPNO-Multilevel, CI-OPT
                                                   MM, QMMM, 2- and 3-layer-ONIOM, Crystal-QMMM,
                                                   LR-CPCM, SF, NACMEs, symmetry and pop. for TD-DFT,
                                                   nearIR, NL-DFT gradient (VV10), updates on ESD,
                                                   ML-optimized integration grids
   S Lehtola, MJT Oliveira, MAL Marques          : LibXC Library
   Liviu Ungur et al                             : ANISO software


 Your calculation uses the libint2 library for the computation of 2-el integrals
 For citations please refer to: http://libint.valeyev.net

 Your ORCA version has been built with support for libXC version: 5.1.0
 For citations please refer to: https://tddft.org/programs/libxc/

 This ORCA versions uses:
   CBLAS   interface :  Fast vector & matrix operations
   LAPACKE interface :  Fast linear algebra routines
   SCALAPACK package :  Parallel linear algebra routines
   Shared memory     :  Shared parallel matrices
   BLAS/LAPACK       :  OpenBLAS 0.3.15  USE64BITINT DYNAMIC_ARCH NO_AFFINITY Haswell SINGLE_THREADED
        Core in use  :  Haswell
   Copyright (c) 2011-2014, The OpenBLAS Project


XCFun DFT library Copyright 2009-2010 Ulf Ekstrom and contributors.
See http://admol.org/xcfun for more information.
This is free software; see the source code for copying conditions.
There is ABSOLUTELY NO WARRANTY; not even for MERCHANTABILITY or FITNESS FOR A PARTICULAR PURPOSE.
For details see the documentation.
Scientific users of this library should cite U. Ekstrom, L. Visscher, R. Bast, A. J. Thorvaldsen and K. Ruud;
J.Chem.Theor.Comp. 2010, DOI: 10.1021/ct100117s
XCFun Version 0.99 

================================================================================

----- Orbital basis set information -----
Your calculation utilizes the basis: 6-31G(d,p)
   H-He, Li-Ne : W. J. Hehre, R. Ditchfield and J.A. Pople, J. Chem. Phys. 56, 2257 (1972).
                 Note: He and Ne are unpublished basis sets taken from the Gaussian program.
                 Note: Li and B from J. D. Dill and J. A. Pople, J. Chem. Phys. 62, 2921 (1975).
   Na - Ar     : M. M. Francl, W. J. Pietro, W. J. Hehre, J. S. Binkley, M. S. Gordon, 
                 D. J. DeFrees and J. A. Pople, J. Chem. Phys. 77, 3654 (1982).
   K - Zn      : V. A. Rassolov, J. A. Pople, M. A. Ratner, and T. L. Windus, J. Chem. Phys. 109, 1223 (1998).

----- AuxJ basis set information -----
Your calculation utilizes the AutoAux generation procedure.
  G. L. Stoychev, A. A. Auer, F. Neese, J. Chem. Theory Comput. 13, 554 (2017)

----- AuxC basis set information -----
Your calculation utilizes the AutoAux generation procedure.
  G. L. Stoychev, A. A. Auer, F. Neese, J. Chem. Theory Comput. 13, 554 (2017)

----- AuxJK basis set information -----
Your calculation utilizes the AutoAux generation procedure.
  G. L. Stoychev, A. A. Auer, F. Neese, J. Chem. Theory Comput. 13, 554 (2017)

================================================================================
                                        WARNINGS
                       Please study these warnings very carefully!
================================================================================


INFO   : the flag for use of the SHARK integral package has been found!

================================================================================
                                       INPUT FILE
================================================================================
NAME = mono_alkyne_singlet_uks_cam_b3lyp_631gdp.inp
|  1> !UKS CAM-B3LYP 6-31g(d,p) FREQ AUTOAUX UNO 
|  2> 
|  3> %freq
|  4>  restart true
|  5> end
|  6> 
|  7> %MaxCore 3000
|  8> 
|  9> %pal
| 10>  nprocs 8
| 11> end
| 12> 
| 13> * XYZ 0 1 
| 14>   C      2.934787    3.906796   -0.832060
| 15>   C      0.297033    1.208715   -0.384438
| 16>   C     -0.688113    0.852620   -1.305220
| 17>   H     -0.969243    1.557690   -2.081413
| 18>   C     -1.311327   -0.389216   -1.250385
| 19>   H     -2.069218   -0.616021   -1.990282
| 20>   C     -0.979764   -1.327083   -0.272452
| 21>   H      6.671786    9.860427   -1.126778
| 22>   C      0.017658   -0.967488    0.641560
| 23>   H      0.309198   -1.662067    1.423383
| 24>   C      0.645448    0.268871    0.588832
| 25>   H      1.410335    0.514760    1.318160
| 26>   C      4.745237    7.802876   -1.449048
| 27>   C      2.213675    5.089745   -0.732773
| 28>   C      0.827719    5.008038   -0.436347
| 29>   C      0.043763    6.192188   -0.274283
| 30>   C      0.196478    3.738461   -0.284649
| 31>   C     -1.176878    3.698234    0.059818
| 32>   C      0.953880    2.541365   -0.450529
| 33>   H      3.998320    3.916922   -1.031444
| 34>   C      2.325815    2.646773   -0.697193
| 35>   C      3.163649    1.498903   -0.843636
| 36>   H      3.410632   11.289265    0.112394
| 37>   C      3.986983    8.978422   -1.299451
| 38>   C      2.655833    8.831984   -0.957752
| 39>   H      2.028685    9.706775   -0.831110
| 40>   C      2.051185    7.572069   -0.768016
| 41>   H      6.213099    9.791473   -2.838111
| 42>   C      2.830583    6.398556   -0.920316
| 43>   H      5.791961    7.858904   -1.720629
| 44>   C      4.181662    6.556735   -1.262809
| 45>   H      4.809971    5.684155   -1.397880
| 46>   C      0.658163    7.465583   -0.432916
| 47>   C     -1.323744    6.079337    0.043308
| 48>   C      6.058744   10.332461   -1.899924
| 49>   C     -0.112220    8.644771   -0.264917
| 50>   C     -1.944890    4.845516    0.220155
| 51>   H     -1.630485    2.728068    0.212806
| 52>   H     -1.883865    6.997316    0.155703
| 53>   C     -3.428668    4.714696    0.588822
| 54>   C     -4.125810    6.076964    0.682942
| 55>   H     -4.080110    6.622755   -0.263760
| 56>   H     -5.180939    5.932448    0.931868
| 57>   C     -3.554809    4.013608    1.953468
| 58>   H     -3.685617    6.705557    1.462124
| 59>   H     -3.051935    4.589699    2.735551
| 60>   C     -4.149879    3.878359   -0.483403
| 61>   H     -4.608528    3.909308    2.231344
| 62>   H     -3.113500    3.014055    1.938232
| 63>   H      6.432800   11.350444   -2.040384
| 64>   H     -5.208952    3.768292   -0.229292
| 65>   H     -4.084397    4.359833   -1.463504
| 66>   H     -3.723597    2.876064   -0.573892
| 67>   C     -1.660982   -2.696606   -0.169649
| 68>   C     -2.336143   -2.831443    1.207327
| 69>   H     -3.097386   -2.058519    1.346580
| 70>   H     -2.822685   -3.807855    1.298390
| 71>   C     -2.732276   -2.893760   -1.248836
| 72>   H     -1.615406   -2.741195    2.023729
| 73>   H     -3.195793   -3.877284   -1.131266
| 74>   C     -0.607838   -3.807620   -0.330165
| 75>   H     -3.525303   -2.144152   -1.174342
| 76>   H     -2.309213   -2.846757   -2.256289
| 77>   H      4.996736   10.695266    0.614309
| 78>   H     -1.083034   -4.792508   -0.272258
| 79>   H     -0.102724   -3.731138   -1.297573
| 80>   H      0.153401   -3.760185    0.453128
| 81>   C      4.577380   10.378867   -1.505065
| 82>   C      3.804676   11.099491   -2.624444
| 83>   H      3.874915   10.547467   -3.566093
| 84>   H      2.745192   11.208551   -2.380603
| 85>   C      4.452672   11.183553   -0.199342
| 86>   H      4.215603   12.101403   -2.785422
| 87>   H      4.866681   12.188426   -0.331093
| 88>   H     -1.345925   10.535344    0.008011
| 89>   C     -0.767341    9.649925   -0.120716
| 90>   C      8.359503   -7.337063   -1.338514
| 91>   H      8.996187   -8.189300   -1.398416
| 92>   H      3.268250  -10.067317    0.803646
| 93>   C      4.308978   -1.801073   -0.935206
| 94>   C      6.788411    1.027268   -1.471682
| 95>   C      7.376850    1.404022   -2.683137
| 96>   H      7.410561    0.692506   -3.502431
| 97>   C      7.915364    2.670240   -2.851172
| 98>   H      8.364241    2.919190   -3.807734
| 99>   C      7.892559    3.620648   -1.823943
|100>   H      1.151863   -7.868394    0.657602
|101>   C      7.292114    3.242144   -0.622389
|102>   H      7.249806    3.935496    0.209091
|103>   C      6.749238    1.971798   -0.448817
|104>   H      6.295667    1.709829    0.501725
|105>   C      2.648729   -5.791759   -0.567988
|106>   C      5.091940   -2.945532   -1.022696
|107>   C      6.487646   -2.790725   -1.230342
|108>   C      7.346363   -3.931069   -1.308539
|109>   C      7.058481   -1.489769   -1.354905
|110>   C      8.461897   -1.373651   -1.512086
|111>   C      6.222492   -0.336944   -1.291396
|112>   H      3.241795   -1.868496   -0.769239
|113>   C      4.853781   -0.512152   -1.064821
|114>   C      3.960370    0.598231   -0.968380
|115>   H      4.718788   -9.087232    0.557928
|116>   C      3.478430   -6.925292   -0.644237
|117>   C      4.827240   -6.707420   -0.854668
|118>   H      5.508465   -7.547455   -0.924810
|119>   C      5.380346   -5.416352   -0.982433
|120>   H      0.874944   -7.943194   -1.092231
|121>   C      4.530052   -4.286158   -0.898419
|122>   H      1.583338   -5.903289   -0.409059
|123>   C      3.162227   -4.517150   -0.692987
|124>   H      2.475879   -3.681786   -0.629007
|125>   C      6.790513   -5.235195   -1.189509
|126>   C      8.730077   -3.744358   -1.493862
|127>   C      1.429972   -8.390474   -0.262549
|128>   C      7.637483   -6.370525   -1.269428
|129>   C      9.302599   -2.478118   -1.586038
|130>   H      8.882678   -0.378457   -1.566595
|131>   H      9.346689   -4.630763   -1.551076
|132>   C     10.812916   -2.268509   -1.757580
|133>   C     11.578823   -3.594620   -1.831518
|134>   H     11.258515   -4.203469   -2.681898
|135>   H     12.647096   -3.393496   -1.952069
|136>   C     11.355933   -1.466038   -0.561488
|137>   H     11.454197   -4.187139   -0.920765
|138>   H     11.187291   -2.001350    0.377312
|139>   C     11.076463   -1.486856   -3.057087
|140>   H     12.432968   -1.303939   -0.671373
|141>   H     10.878072   -0.486891   -0.478717
|142>   H      1.098155   -9.428029   -0.165755
|143>   H     12.150641   -1.323922   -3.190998
|144>   H     10.705598   -2.037856   -3.926256
|145>   H     10.590014   -0.508460   -3.048814
|146>   C      8.526490    4.998990   -2.044002
|147>   C     10.027247    4.823504   -2.340147
|148>   H     10.195031    4.210579   -3.229135
|149>   H     10.498301    5.796842   -2.510496
|150>   C      7.851171    5.694760   -3.239617
|151>   H     10.536884    4.341278   -1.501011
|152>   H      8.303843    6.676834   -3.411368
|153>   C      8.385228    5.907278   -0.816575
|154>   H      7.955557    5.116833   -4.161032
|155>   H      6.782152    5.839970   -3.059494
|156>   H      3.434311   -8.503416    1.620152
|157>   H      8.851741    6.875261   -1.021249
|158>   H      7.337399    6.092063   -0.562290
|159>   H      8.880086    5.484153    0.062148
|160>   C      2.944280   -8.356062   -0.502578
|161>   C      3.245246   -9.144228   -1.789686
|162>   H      2.762581   -8.679440   -2.654274
|163>   H      4.317813   -9.192823   -1.992683
|164>   C      3.635027   -9.042122    0.689524
|165>   H      2.873598  -10.170338   -1.703167
|166>   *
|167> 
|168>                          ****END OF INPUT****
================================================================================

                       ****************************
                       * Single Point Calculation *
                       ****************************

---------------------------------
CARTESIAN COORDINATES (ANGSTROEM)
---------------------------------
  C      2.934787    3.906796   -0.832060
  C      0.297033    1.208715   -0.384438
  C     -0.688113    0.852620   -1.305220
  H     -0.969243    1.557690   -2.081413
  C     -1.311327   -0.389216   -1.250385
  H     -2.069218   -0.616021   -1.990282
  C     -0.979764   -1.327083   -0.272452
  H      6.671786    9.860427   -1.126778
  C      0.017658   -0.967488    0.641560
  H      0.309198   -1.662067    1.423383
  C      0.645448    0.268871    0.588832
  H      1.410335    0.514760    1.318160
  C      4.745237    7.802876   -1.449048
  C      2.213675    5.089745   -0.732773
  C      0.827719    5.008038   -0.436347
  C      0.043763    6.192188   -0.274283
  C      0.196478    3.738461   -0.284649
  C     -1.176878    3.698234    0.059818
  C      0.953880    2.541365   -0.450529
  H      3.998320    3.916922   -1.031444
  C      2.325815    2.646773   -0.697193
  C      3.163649    1.498903   -0.843636
  H      3.410632   11.289265    0.112394
  C      3.986983    8.978422   -1.299451
  C      2.655833    8.831984   -0.957752
  H      2.028685    9.706775   -0.831110
  C      2.051185    7.572069   -0.768016
  H      6.213099    9.791473   -2.838111
  C      2.830583    6.398556   -0.920316
  H      5.791961    7.858904   -1.720629
  C      4.181662    6.556735   -1.262809
  H      4.809971    5.684155   -1.397880
  C      0.658163    7.465583   -0.432916
  C     -1.323744    6.079337    0.043308
  C      6.058744   10.332461   -1.899924
  C     -0.112220    8.644771   -0.264917
  C     -1.944890    4.845516    0.220155
  H     -1.630485    2.728068    0.212806
  H     -1.883865    6.997316    0.155703
  C     -3.428668    4.714696    0.588822
  C     -4.125810    6.076964    0.682942
  H     -4.080110    6.622755   -0.263760
  H     -5.180939    5.932448    0.931868
  C     -3.554809    4.013608    1.953468
  H     -3.685617    6.705557    1.462124
  H     -3.051935    4.589699    2.735551
  C     -4.149879    3.878359   -0.483403
  H     -4.608528    3.909308    2.231344
  H     -3.113500    3.014055    1.938232
  H      6.432800   11.350444   -2.040384
  H     -5.208952    3.768292   -0.229292
  H     -4.084397    4.359833   -1.463504
  H     -3.723597    2.876064   -0.573892
  C     -1.660982   -2.696606   -0.169649
  C     -2.336143   -2.831443    1.207327
  H     -3.097386   -2.058519    1.346580
  H     -2.822685   -3.807855    1.298390
  C     -2.732276   -2.893760   -1.248836
  H     -1.615406   -2.741195    2.023729
  H     -3.195793   -3.877284   -1.131266
  C     -0.607838   -3.807620   -0.330165
  H     -3.525303   -2.144152   -1.174342
  H     -2.309213   -2.846757   -2.256289
  H      4.996736   10.695266    0.614309
  H     -1.083034   -4.792508   -0.272258
  H     -0.102724   -3.731138   -1.297573
  H      0.153401   -3.760185    0.453128
  C      4.577380   10.378867   -1.505065
  C      3.804676   11.099491   -2.624444
  H      3.874915   10.547467   -3.566093
  H      2.745192   11.208551   -2.380603
  C      4.452672   11.183553   -0.199342
  H      4.215603   12.101403   -2.785422
  H      4.866681   12.188426   -0.331093
  H     -1.345925   10.535344    0.008011
  C     -0.767341    9.649925   -0.120716
  C      8.359503   -7.337063   -1.338514
  H      8.996187   -8.189300   -1.398416
  H      3.268250  -10.067317    0.803646
  C      4.308978   -1.801073   -0.935206
  C      6.788411    1.027268   -1.471682
  C      7.376850    1.404022   -2.683137
  H      7.410561    0.692506   -3.502431
  C      7.915364    2.670240   -2.851172
  H      8.364241    2.919190   -3.807734
  C      7.892559    3.620648   -1.823943
  H      1.151863   -7.868394    0.657602
  C      7.292114    3.242144   -0.622389
  H      7.249806    3.935496    0.209091
  C      6.749238    1.971798   -0.448817
  H      6.295667    1.709829    0.501725
  C      2.648729   -5.791759   -0.567988
  C      5.091940   -2.945532   -1.022696
  C      6.487646   -2.790725   -1.230342
  C      7.346363   -3.931069   -1.308539
  C      7.058481   -1.489769   -1.354905
  C      8.461897   -1.373651   -1.512086
  C      6.222492   -0.336944   -1.291396
  H      3.241795   -1.868496   -0.769239
  C      4.853781   -0.512152   -1.064821
  C      3.960370    0.598231   -0.968380
  H      4.718788   -9.087232    0.557928
  C      3.478430   -6.925292   -0.644237
  C      4.827240   -6.707420   -0.854668
  H      5.508465   -7.547455   -0.924810
  C      5.380346   -5.416352   -0.982433
  H      0.874944   -7.943194   -1.092231
  C      4.530052   -4.286158   -0.898419
  H      1.583338   -5.903289   -0.409059
  C      3.162227   -4.517150   -0.692987
  H      2.475879   -3.681786   -0.629007
  C      6.790513   -5.235195   -1.189509
  C      8.730077   -3.744358   -1.493862
  C      1.429972   -8.390474   -0.262549
  C      7.637483   -6.370525   -1.269428
  C      9.302599   -2.478118   -1.586038
  H      8.882678   -0.378457   -1.566595
  H      9.346689   -4.630763   -1.551076
  C     10.812916   -2.268509   -1.757580
  C     11.578823   -3.594620   -1.831518
  H     11.258515   -4.203469   -2.681898
  H     12.647096   -3.393496   -1.952069
  C     11.355933   -1.466038   -0.561488
  H     11.454197   -4.187139   -0.920765
  H     11.187291   -2.001350    0.377312
  C     11.076463   -1.486856   -3.057087
  H     12.432968   -1.303939   -0.671373
  H     10.878072   -0.486891   -0.478717
  H      1.098155   -9.428029   -0.165755
  H     12.150641   -1.323922   -3.190998
  H     10.705598   -2.037856   -3.926256
  H     10.590014   -0.508460   -3.048814
  C      8.526490    4.998990   -2.044002
  C     10.027247    4.823504   -2.340147
  H     10.195031    4.210579   -3.229135
  H     10.498301    5.796842   -2.510496
  C      7.851171    5.694760   -3.239617
  H     10.536884    4.341278   -1.501011
  H      8.303843    6.676834   -3.411368
  C      8.385228    5.907278   -0.816575
  H      7.955557    5.116833   -4.161032
  H      6.782152    5.839970   -3.059494
  H      3.434311   -8.503416    1.620152
  H      8.851741    6.875261   -1.021249
  H      7.337399    6.092063   -0.562290
  H      8.880086    5.484153    0.062148
  C      2.944280   -8.356062   -0.502578
  C      3.245246   -9.144228   -1.789686
  H      2.762581   -8.679440   -2.654274
  H      4.317813   -9.192823   -1.992683
  C      3.635027   -9.042122    0.689524
  H      2.873598  -10.170338   -1.703167

----------------------------
CARTESIAN COORDINATES (A.U.)
----------------------------
  NO LB      ZA    FRAG     MASS         X           Y           Z
   0 C     6.0000    0    12.011    5.545944    7.382775   -1.572366
   1 C     6.0000    0    12.011    0.561311    2.284140   -0.726483
   2 C     6.0000    0    12.011   -1.300345    1.611218   -2.466508
   3 H     1.0000    0     1.008   -1.831604    2.943608   -3.933301
   4 C     6.0000    0    12.011   -2.478049   -0.735512   -2.362885
   5 H     1.0000    0     1.008   -3.910255   -1.164111   -3.761088
   6 C     6.0000    0    12.011   -1.851486   -2.507823   -0.514860
   7 H     1.0000    0     1.008   12.607848   18.633507   -2.129302
   8 C     6.0000    0    12.011    0.033369   -1.828287    1.212373
   9 H     1.0000    0     1.008    0.584300   -3.140851    2.689804
  10 C     6.0000    0    12.011    1.219720    0.508093    1.112731
  11 H     1.0000    0     1.008    2.665147    0.972755    2.490961
  12 C     6.0000    0    12.011    8.967198   14.745299   -2.738304
  13 C     6.0000    0    12.011    4.183239    9.618224   -1.384740
  14 C     6.0000    0    12.011    1.564162    9.463820   -0.824576
  15 C     6.0000    0    12.011    0.082700   11.701539   -0.518320
  16 C     6.0000    0    12.011    0.371290    7.064667   -0.537909
  17 C     6.0000    0    12.011   -2.223977    6.988649    0.113040
  18 C     6.0000    0    12.011    1.802572    4.802484   -0.851376
  19 H     1.0000    0     1.008    7.555730    7.401910   -1.949147
  20 C     6.0000    0    12.011    4.395153    5.001676   -1.317504
  21 C     6.0000    0    12.011    5.978430    2.832516   -1.594241
  22 H     1.0000    0     1.008    6.445160   21.333619    0.212394
  23 C     6.0000    0    12.011    7.534306   16.966759   -2.455607
  24 C     6.0000    0    12.011    5.018797   16.690031   -1.809889
  25 H     1.0000    0     1.008    3.833659   18.343146   -1.570570
  26 C     6.0000    0    12.011    3.876178   14.309137   -1.451340
  27 H     1.0000    0     1.008   11.741056   18.503202   -5.363253
  28 C     6.0000    0    12.011    5.349027   12.091518   -1.739145
  29 H     1.0000    0     1.008   10.945220   14.851176   -3.251518
  30 C     6.0000    0    12.011    7.902196   12.390433   -2.386363
  31 H     1.0000    0     1.008    9.089528   10.741496   -2.641610
  32 C     6.0000    0    12.011    1.243748   14.107907   -0.818093
  33 C     6.0000    0    12.011   -2.501514   11.488282    0.081840
  34 C     6.0000    0    12.011   11.449367   19.525522   -3.590336
  35 C     6.0000    0    12.011   -0.212065   16.336250   -0.500621
  36 C     6.0000    0    12.011   -3.675309    9.156698    0.416033
  37 H     1.0000    0     1.008   -3.081170    5.155301    0.402145
  38 H     1.0000    0     1.008   -3.559989   13.223011    0.294236
  39 C     6.0000    0    12.011   -6.479244    8.909484    1.112712
  40 C     6.0000    0    12.011   -7.796651   11.483798    1.290573
  41 H     1.0000    0     1.008   -7.710290   12.515193   -0.498434
  42 H     1.0000    0     1.008   -9.790556   11.210702    1.760975
  43 C     6.0000    0    12.011   -6.717615    7.584620    3.691520
  44 H     1.0000    0     1.008   -6.964807   12.671666    2.763014
  45 H     1.0000    0     1.008   -5.767321    8.673274    5.169442
  46 C     6.0000    0    12.011   -7.842135    7.329036   -0.913499
  47 H     1.0000    0     1.008   -8.708856    7.387521    4.216629
  48 H     1.0000    0     1.008   -5.883662    5.695739    3.662728
  49 H     1.0000    0     1.008   12.156230   21.449231   -3.855767
  50 H     1.0000    0     1.008   -9.843493    7.121040   -0.433299
  51 H     1.0000    0     1.008   -7.718392    8.238890   -2.765622
  52 H     1.0000    0     1.008   -7.036579    5.434973   -1.084499
  53 C     6.0000    0    12.011   -3.138801   -5.095847   -0.320590
  54 C     6.0000    0    12.011   -4.414670   -5.350652    2.281517
  55 H     1.0000    0     1.008   -5.853211   -3.890037    2.544667
  56 H     1.0000    0     1.008   -5.334102   -7.195803    2.453602
  57 C     6.0000    0    12.011   -5.163253   -5.468414   -2.359958
  58 H     1.0000    0     1.008   -3.052675   -5.180108    3.824294
  59 H     1.0000    0     1.008   -6.039174   -7.327005   -2.137783
  60 C     6.0000    0    12.011   -1.148647   -7.195359   -0.623921
  61 H     1.0000    0     1.008   -6.661857   -4.051860   -2.219185
  62 H     1.0000    0     1.008   -4.363780   -5.379591   -4.263768
  63 H     1.0000    0     1.008    9.442463   20.211124    1.160876
  64 H     1.0000    0     1.008   -2.046638   -9.056528   -0.514493
  65 H     1.0000    0     1.008   -0.194120   -7.050829   -2.452058
  66 H     1.0000    0     1.008    0.289886   -7.105720    0.856288
  67 C     6.0000    0    12.011    8.649995   19.613216   -2.844161
  68 C     6.0000    0    12.011    7.189796   20.974998   -4.959480
  69 H     1.0000    0     1.008    7.322528   19.931824   -6.738939
  70 H     1.0000    0     1.008    5.187661   21.181092   -4.498688
  71 C     6.0000    0    12.011    8.414331   21.133852   -0.376702
  72 H     1.0000    0     1.008    7.966335   22.868338   -5.263685
  73 H     1.0000    0     1.008    9.196694   23.032787   -0.625675
  74 H     1.0000    0     1.008   -2.543430   19.908915    0.015139
  75 C     6.0000    0    12.011   -1.450064   18.235715   -0.228120
  76 C     6.0000    0    12.011   15.797171  -13.865040   -2.529425
  77 H     1.0000    0     1.008   17.000330  -15.475534   -2.642623
  78 H     1.0000    0     1.008    6.176097  -19.024472    1.518671
  79 C     6.0000    0    12.011    8.142788   -3.403535   -1.767283
  80 C     6.0000    0    12.011   12.828238    1.941255   -2.781076
  81 C     6.0000    0    12.011   13.940226    2.653217   -5.070394
  82 H     1.0000    0     1.008   14.003931    1.308647   -6.618635
  83 C     6.0000    0    12.011   14.957870    5.046022   -5.387934
  84 H     1.0000    0     1.008   15.806125    5.516470   -7.195574
  85 C     6.0000    0    12.011   14.914775    6.842033   -3.446753
  86 H     1.0000    0     1.008    2.176706  -14.869110    1.242688
  87 C     6.0000    0    12.011   13.780098    6.126764   -1.176145
  88 H     1.0000    0     1.008   13.700148    7.437010    0.395125
  89 C     6.0000    0    12.011   12.754211    3.726158   -0.848141
  90 H     1.0000    0     1.008   11.897086    3.231109    0.948123
  91 C     6.0000    0    12.011    5.005372  -10.944838   -1.073342
  92 C     6.0000    0    12.011    9.622372   -5.566249   -1.932615
  93 C     6.0000    0    12.011   12.259874   -5.273706   -2.325009
  94 C     6.0000    0    12.011   13.882614   -7.428644   -2.472780
  95 C     6.0000    0    12.011   13.338596   -2.815255   -2.560399
  96 C     6.0000    0    12.011   15.990668   -2.595824   -2.857428
  97 C     6.0000    0    12.011   11.758806   -0.636732   -2.440385
  98 H     1.0000    0     1.008    6.126105   -3.530946   -1.453651
  99 C     6.0000    0    12.011    9.172317   -0.967827   -2.012220
 100 C     6.0000    0    12.011    7.484015    1.130493   -1.829973
 101 H     1.0000    0     1.008    8.917217  -17.172380    1.054331
 102 C     6.0000    0    12.011    6.573280  -13.086905   -1.217431
 103 C     6.0000    0    12.011    9.122162  -12.675187   -1.615088
 104 H     1.0000    0     1.008   10.409490  -14.262623   -1.747638
 105 C     6.0000    0    12.011   10.167380  -10.235422   -1.856529
 106 H     1.0000    0     1.008    1.653405  -15.010461   -2.064017
 107 C     6.0000    0    12.011    8.560558   -8.099665   -1.697766
 108 H     1.0000    0     1.008    2.992075  -11.155599   -0.773009
 109 C     6.0000    0    12.011    5.975743   -8.536176   -1.309556
 110 H     1.0000    0     1.008    4.678733   -6.957567   -1.188651
 111 C     6.0000    0    12.011   12.832210   -9.893085   -2.247846
 112 C     6.0000    0    12.011   16.497455   -7.075811   -2.822990
 113 C     6.0000    0    12.011    2.702255  -15.855698   -0.496146
 114 C     6.0000    0    12.011   14.432751  -12.038548   -2.398871
 115 C     6.0000    0    12.011   17.579364   -4.682964   -2.997177
 116 H     1.0000    0     1.008   16.785829   -0.715180   -2.960436
 117 H     1.0000    0     1.008   17.662682   -8.750874   -2.931109
 118 C     6.0000    0    12.011   20.433450   -4.286861   -3.321345
 119 C     6.0000    0    12.011   21.880804   -6.792847   -3.461067
 120 H     1.0000    0     1.008   21.275510   -7.943405   -5.068053
 121 H     1.0000    0     1.008   23.899548   -6.412778   -3.688876
 122 C     6.0000    0    12.011   21.459603   -2.770410   -1.061059
 123 H     1.0000    0     1.008   21.645295   -7.912546   -1.739994
 124 H     1.0000    0     1.008   21.140916   -3.782003    0.713016
 125 C     6.0000    0    12.011   20.931482   -2.809751   -5.777057
 126 H     1.0000    0     1.008   23.494905   -2.464088   -1.268711
 127 H     1.0000    0     1.008   20.556577   -0.920091   -0.904644
 128 H     1.0000    0     1.008    2.075212  -17.816393   -0.313232
 129 H     1.0000    0     1.008   22.961384   -2.501850   -6.030112
 130 H     1.0000    0     1.008   20.230648   -3.850990   -7.419549
 131 H     1.0000    0     1.008   20.012226   -0.960850   -5.761423
 132 C     6.0000    0    12.011   16.112731    9.446722   -3.862604
 133 C     6.0000    0    12.011   18.948751    9.115102   -4.422237
 134 H     1.0000    0     1.008   19.265817    7.956841   -6.102181
 135 H     1.0000    0     1.008   19.838914   10.954444   -4.744150
 136 C     6.0000    0    12.011   14.836563   10.761537   -6.121989
 137 H     1.0000    0     1.008   19.911825    8.203826   -2.836500
 138 H     1.0000    0     1.008   15.691989   12.617388   -6.446551
 139 C     6.0000    0    12.011   15.845784   11.163138   -1.543103
 140 H     1.0000    0     1.008   15.033824    9.669413   -7.863211
 141 H     1.0000    0     1.008   12.816410   11.035944   -5.781606
 142 H     1.0000    0     1.008    6.489907  -16.069127    3.061644
 143 H     1.0000    0     1.008   16.727366   12.992360   -1.929881
 144 H     1.0000    0     1.008   13.865675   11.512331   -1.062574
 145 H     1.0000    0     1.008   16.780931   10.363547    0.117443
 146 C     6.0000    0    12.011    5.563883  -15.790669   -0.949735
 147 C     6.0000    0    12.011    6.132626  -17.280087   -3.382016
 148 H     1.0000    0     1.008    5.220522  -16.401765   -5.015851
 149 H     1.0000    0     1.008    8.159484  -17.371918   -3.765625
 150 C     6.0000    0    12.011    6.869206  -17.087134    1.303012
 151 H     1.0000    0     1.008    5.430313  -19.219154   -3.218519

--------------------------------
INTERNAL COORDINATES (ANGSTROEM)
--------------------------------
 C      0   0   0     0.000000000000     0.00000000     0.00000000
 C      1   0   0     3.799704291384     0.00000000     0.00000000
 C      2   1   0     1.394688417484   126.43248004     0.00000000
 H      3   2   1     1.085648817551   119.28231056   339.21716992
 C      3   2   1     1.390524799461   121.23600434   158.93648710
 H      5   3   2     1.083183662411   118.27157337   180.07126838
 C      5   3   2     1.394948560036   121.43666807     0.14254459
 H      1   2   3     7.035463190842   167.04831957    85.17456524
 C      7   5   3     1.399848972658   117.02579888   359.34103769
 H      9   7   5     1.085671571964   119.81423636   179.82071492
 C      9   7   5     1.387618140183   121.76452633     0.46744752
 H     11   9   7     1.085095781336   119.68808779   179.63548143
 C      8   1   2     2.837069812307    14.15069903   300.74413460
 C      1   2   3     1.388966796404   103.64615961    71.95521302
 C     14   1   2     1.419654338655   118.21335438     3.49875730
 C     15  14   1     1.429357538383   120.75993871   177.73983558
 C     15  14   1     1.425939424455   120.37335351   358.24416048
 C     17  15  14     1.416468294158   118.70939175   177.68616278
 C     17  15  14     1.426258320649   119.98893056   359.06082305
 H      1   2   3     1.082108570071   135.28650918   254.32413844
 C     19  17  15     1.397912593686   118.58137941     3.06345050
 C     21  19  17     1.428641627808   122.21239345   178.46679090
 H      8   1  20     3.769913883306    81.22687718   187.98243331
 C     13   8  23     1.406853506603    75.39928695    17.50385968
 C     24  13   8     1.382086327602   117.18490473   198.15397188
 H     25  24  13     1.083795231466   120.04636866   180.03415189
 C     25  24  13     1.410313710075   122.74144252   359.61760356
 H      8   1  20     1.773078975955    82.53688021    90.47570341
 C     27  25  24     1.416964817338   119.31327274     0.50936999
 H     13   8  28     1.082832631814    48.28281841    73.72694365
 C     13   8  28     1.380278644922   156.44779387   136.86364531
 H     31  13   8     1.083703017861   118.25459543   310.70683468
 C     16  15  14     1.422739123913   119.47169361     0.97660124
 C     16  15  14     1.408429901178   119.45359063   181.14061911
 C      8   1  20     1.093796749052    95.57234083   123.96127350
 C     33  16  15     1.418519640341   119.75466625   180.40654784
 C     18  17  15     1.389894374849   122.70828469     1.82956267
 H     18  17  15     1.081844122852   117.80000728   182.57249081
 H     34  16  15     1.081227827568   117.28404843   180.13037863
 C     37  18  17     1.534479189358   119.44937975   179.75431629
 C     40  37  18     1.533179587129   112.25184410   181.70014366
 H     41  40  37     1.093718877265   111.79322874    59.86097058
 H     41  40  37     1.093684705193   109.58708398   179.13156473
 C     40  37  18     1.539381252627   109.33231964    61.57321802
 H     41  40  37     1.093628650878   111.80325509   298.32187834
 H     44  40  37     1.093808447145   110.87347373    60.39065141
 C     40  37  18     1.539243754158   109.39199699   301.82958046
 H     44  40  37     1.094722472747   110.32134271   180.15278140
 H     44  40  37     1.092745152808   111.78601595   300.04777407
 H     35   8   1     1.093588721149   107.50568787   175.00893116
 H     47  40  37     1.094679297392   110.25740536   179.48317498
 H     47  40  37     1.093939246577   110.91087367   299.14713206
 H     47  40  37     1.092931777226   111.91353346    59.60503138
 C      7   5   3     1.533042617758   122.82061652   179.05662374
 C     54   7   5     1.539508459563   109.45682158   239.58549744
 H     55  54   7     1.093752171579   110.92917431    60.58915625
 H     55  54   7     1.094712739250   110.33062521   180.33066700
 C     54   7   5     1.533357464886   112.21729184   359.68756993
 H     55  54   7     1.092757406874   111.82304209   300.22117585
 H     58  54   7     1.093613356157   109.63880731   180.50604519
 C     54   7   5     1.539230255416   109.49874151   119.81666071
 H     58  54   7     1.093779380144   111.74638515   299.66607312
 H     58  54   7     1.093687858206   111.87174513    61.27400772
 H     23   8   1     1.766487865241    35.82920804    95.63548416
 H     61  54   7     1.095065674564   110.28910209   180.76057613
 H     61  54   7     1.094014573844   110.95625080   300.46293528
 H     61  54   7     1.093289905832   111.73823336    61.05750630
 C     24  13   8     1.533653133088   122.77012107    18.42438073
 C     68  24  13     1.539278976220   109.37459766   120.68950778
 H     69  68  24     1.093785560747   110.94982865   299.91182840
 H     69  68  24     1.092638486937   111.78950094    60.21026062
 C     23   8   1     1.092795370708    17.19576483   174.59737635
 H     69  68  24     1.094807093308   110.30042163   180.11669568
 H     72  23   8     1.094774645400   107.82692594   166.48933514
 H     36  33  16     2.273935792528   179.90326041    96.87581577
 C     75  36  33     1.065503116441     0.05801535   123.43073821
 C     67  61  54     9.129301578842   117.92182754   204.83498582
 H     77  67  61     1.065487057467   149.49032425   277.98954830
 H     77  67  61     6.161492796403    50.40481164   273.96015767
 C     22  21  19     3.494281783674   162.49698182   354.48414332
 C     22  21  19     3.708878659108   133.84297095   180.44409577
 C     81  22  21     1.398508938213   121.57728000   293.35884719
 H     82  81  22     1.085649164423   119.35556331   271.17510700
 C     82  81  22     1.386196635743   120.96707890    91.14529008
 H     84  82  81     1.085577046309   118.48474288   179.86646369
 C     84  82  81     1.399640972868   121.66613491   359.92397514
 H     79  77  67     3.055435344371   103.69958851     6.20355630
 C     86  84  82     1.395539856456   117.04846885   359.46126914
 H     88  86  84     1.083460176088   120.26417064   179.70945922
 C     88  86  84     1.392343546068   121.50354799     0.50665497
 H     90  88  86     1.085303875772   119.49575314   179.60529668
 C     87  79  77     2.838149325402   100.48048723     3.80767091
 C     80  22  21     1.389413687936   164.63388900   186.75824935
 C     93  80  22     1.419534186626   118.25803012   359.88528200
 C     94  93  80     1.429648241783   120.76920905   179.05582751
 C     94  93  80     1.426132901286   120.38499608   359.51658927
 C     96  94  93     1.416956501005   118.74338562   177.70278157
 C     96  94  93     1.425453079490   119.94173557   359.03760749
 H     80  22  21     1.082113885646    74.42931639     6.19955080
 C     98  96  94     1.398357563504   118.68055424     1.96224347
 C     22  21  19     1.208939811968   174.65868301   187.62591503
 H     79  77  67     1.767768206579    13.58620220   293.40335378
 C     92  87  79     1.406810122757    75.22069986     8.87583106
 C    103  92  87     1.382402918922   117.17465854   199.23902643
 H    104 103  92     1.083810962306   120.06410724   180.22536552
 C    104 103  92     1.410356948820   122.73184043     0.42752868
 H     87  79  77     1.773187722845    97.17977928    76.50439849
 C    106 104 103     1.416826283024   119.30728178   359.77554419
 H     92  87  79     1.082938295021    48.88349876   166.36355117
 C     92  87  79     1.379830804442   155.68317039   232.66102681
 H    110  92  87     1.083051259175   118.11884742   308.25609576
 C     95  94  93     1.422632063211   119.46777900     0.61766723
 C     95  94  93     1.408499217481   119.44191714   181.01043999
 C    107  87  79     1.093840802086    35.85455854     2.21685044
 C     77  67  61     1.208421061237    30.49582442    98.09353544
 C     97  96  94     1.389998598991   122.67200949     1.77864897
 H     97  96  94     1.081868281575   117.78759119   182.32281077
 H    113  95  94     1.081294420759   117.29118672   180.17989250
 C    116  97  96     1.534411949619   119.52007071   179.96028042
 C    119 116  97     1.533183206539   112.26834351   180.48985575
 H    120 119 116     1.093819209954   111.87940624    60.82908432
 H    120 119 116     1.093704991991   109.52371671   180.06988901
 C    119 116  97     1.539306090612   109.36429945    60.39350545
 H    120 119 116     1.093655079194   111.80938483   299.26871120
 H    123 119 116     1.093775343253   110.94078988    60.55986684
 C    119 116  97     1.539206573747   109.40798725   300.67914852
 H    123 119 116     1.094694108074   110.25957771   180.25819866
 H    123 119 116     1.092671506616   111.82303623   300.14142247
 H    114 107  87     1.093614181487   107.52520586   115.91762398
 H    126 119 116     1.094686265540   110.29651530   179.67012038
 H    126 119 116     1.093890578982   110.91500313   299.38577577
 H    126 119 116     1.092684677730   111.84483208    59.80000362
 C     86  84  82     1.533010484376   119.89667766   178.70435379
 C    133  86  84     1.539730096566   109.15892726   299.07996166
 H    134 133  86     1.092761726281   111.71875551    59.49332743
 H    134 133  86     1.094667764649   110.36600918   179.44567223
 C    133  86  84     1.539365737207   109.66158731    58.73681263
 H    134 133  86     1.093810318721   110.90549487   299.23330914
 H    137 133  86     1.094933645049   110.23428452   180.55227640
 C    133  86  84     1.533466362173   112.30636580   179.16697072
 H    137 133  86     1.092658069366   111.96220176   300.31534759
 H    137 133  86     1.093769565123   111.15374159    60.69546208
 H    102  79 129     1.766081003680    60.19074940    71.90729562
 H    140 133  86     1.093854155605   109.57831034   179.95663312
 H    140 133  86     1.093961594706   111.98343048   299.28615236
 H    140 133  86     1.093651368818   111.85636966    60.91631297
 C    114 107  87     1.533599304072   111.90926810   236.27292286
 C    147 114 107     1.538971468344   108.21057935   300.12591921
 H    148 147 114     1.093849074102   110.92509093    62.18084953
 H    148 147 114     1.092688988470   111.72250617   182.44881180
 C    102  79 143     1.092652883782    36.12607827   322.51765013
 H    148 147 114     1.094764589017   110.33666765   302.39649146

---------------------------
INTERNAL COORDINATES (A.U.)
---------------------------
 C      0   0   0     0.000000000000     0.00000000     0.00000000
 C      1   0   0     7.180400500601     0.00000000     0.00000000
 C      2   1   0     2.635579151197   126.43248004     0.00000000
 H      3   2   1     2.051578942786   119.28231056   339.21716992
 C      3   2   1     2.627711053408   121.23600434   158.93648710
 H      5   3   2     2.046920474695   118.27157337   180.07126838
 C      5   3   2     2.636070749376   121.43666807     0.14254459
 H      1   2   3    13.295098655974   167.04831957    85.17456524
 C      7   5   3     2.645331187176   117.02579888   359.34103769
 H      9   7   5     2.051621942395   119.81423636   179.82071492
 C      9   7   5     2.622218263407   121.76452633     0.46744752
 H     11   9   7     2.050533855799   119.68808779   179.63548143
 C      8   1   2     5.361284968075    14.15069903   300.74413460
 C      1   2   3     2.624766854314   103.64615961    71.95521302
 C     14   1   2     2.682757904890   118.21335438     3.49875730
 C     15  14   1     2.701094294999   120.75993871   177.73983558
 C     15  14   1     2.694634995781   120.37335351   358.24416048
 C     17  15  14     2.676737153341   118.70939175   177.68616278
 C     17  15  14     2.695237622253   119.98893056   359.06082305
 H      1   2   3     2.044888844603   135.28650918   254.32413844
 C     19  17  15     2.641671961225   118.58137941     3.06345050
 C     21  19  17     2.699741420076   122.21239345   178.46679090
 H      8   1  20     7.124104787916    81.22687718   187.98243331
 C     13   8  23     2.658567838026    75.39928695    17.50385968
 C     24  13   8     2.611764652605   117.18490473   198.15397188
 H     25  24  13     2.048076172721   120.04636866   180.03415189
 C     25  24  13     2.665106674956   122.74144252   359.61760356
 H      8   1  20     3.350633678369    82.53688021    90.47570341
 C     27  25  24     2.677675446170   119.31327274     0.50936999
 H     13   8  28     2.046257123001    48.28281841    73.72694365
 C     13   8  28     2.608348627402   156.44779387   136.86364531
 H     31  13   8     2.047901914262   118.25459543   310.70683468
 C     16  15  14     2.688587304211   119.47169361     0.97660124
 C     16  15  14     2.661546792051   119.45359063   181.14061911
 C      8   1  20     2.066976301881    95.57234083   123.96127350
 C     33  16  15     2.680613635834   119.75466625   180.40654784
 C     18  17  15     2.626519723542   122.70828469     1.82956267
 H     18  17  15     2.044389111782   117.80000728   182.57249081
 H     34  16  15     2.043224482478   117.28404843   180.13037863
 C     37  18  17     2.899745426088   119.44937975   179.75431629
 C     40  37  18     2.897289533792   112.25184410   181.70014366
 H     41  40  37     2.066829145530   111.79322874    59.86097058
 H     41  40  37     2.066764569673   109.58708398   179.13156473
 C     40  37  18     2.909008983159   109.33231964    61.57321802
 H     41  40  37     2.066658642370   111.80325509   298.32187834
 H     44  40  37     2.066998408074   110.87347373    60.39065141
 C     40  37  18     2.908749148708   109.39199699   301.82958046
 H     44  40  37     2.068725666141   110.32134271   180.15278140
 H     44  40  37     2.064989072978   111.78601595   300.04777407
 H     35   8   1     2.066583186117   107.50568787   175.00893116
 H     47  40  37     2.068644076545   110.25740536   179.48317498
 H     47  40  37     2.067245583178   110.91087367   299.14713206
 H     47  40  37     2.065341742017   111.91353346    59.60503138
 C      7   5   3     2.897030699192   122.82061652   179.05662374
 C     54   7   5     2.909249369429   109.45682158   239.58549744
 H     55  54   7     2.066892062666   110.92917431    60.58915625
 H     55  54   7     2.068707272498   110.33062521   180.33066700
 C     54   7   5     2.897625674038   112.21729184   359.68756993
 H     55  54   7     2.065012229805   111.82304209   300.22117585
 H     58  54   7     2.066629739535   109.63880731   180.50604519
 C     54   7   5     2.908723639782   109.49874151   119.81666071
 H     58  54   7     2.066943479403   111.74638515   299.66607312
 H     58  54   7     2.066770528004   111.87174513    61.27400772
 H     23   8   1     3.338178284200    35.82920804    95.63548416
 H     61  54   7     2.069374223584   110.28910209   180.76057613
 H     61  54   7     2.067387931085   110.95625080   300.46293528
 H     61  54   7     2.066018507004   111.73823336    61.05750630
 C     24  13   8     2.898184405966   122.77012107    18.42438073
 C     68  24  13     2.908815708759   109.37459766   120.68950778
 H     69  68  24     2.066955159049   110.94982865   299.91182840
 H     69  68  24     2.064787503694   111.78950094    60.21026062
 C     23   8   1     2.065083971054    17.19576483   174.59737635
 H     69  68  24     2.068885575826   110.30042163   180.11669568
 H     72  23   8     2.068824258167   107.82692594   166.48933514
 H     36  33  16     4.297115893998   179.90326041    96.87581577
 C     75  36  33     2.013509084914     0.05801535   123.43073821
 C     67  61  54    17.251879777987   117.92182754   204.83498582
 H     77  67  61     2.013478737850   149.49032425   277.98954830
 H     77  67  61    11.643533961330    50.40481164   273.96015767
 C     22  21  19     6.603235605894   162.49698182   354.48414332
 C     22  21  19     7.008764929659   133.84297095   180.44409577
 C     81  22  21     2.642798889064   121.57728000   293.35884719
 H     82  81  22     2.051579598280   119.35556331   271.17510700
 C     82  81  22     2.619532009317   120.96707890    91.14529008
 H     84  82  81     2.051443314795   118.48474288   179.86646369
 C     84  82  81     2.644938124535   121.66613491   359.92397514
 H     79  77  67     5.773936020765   103.69958851     6.20355630
 C     86  84  82     2.637188137673   117.04846885   359.46126914
 H     88  86  84     2.047443009816   120.26417064   179.70945922
 C     88  86  84     2.631147986400   121.50354799     0.50665497
 H     90  88  86     2.050927097293   119.49575314   179.60529668
 C     87  79  77     5.363324952184   100.48048723     3.80767091
 C     80  22  21     2.625611356921   164.63388900   186.75824935
 C     93  80  22     2.682530850463   118.25803012   359.88528200
 C     94  93  80     2.701643644812   120.76920905   179.05582751
 C     94  93  80     2.695000614005   120.38499608   359.51658927
 C     96  94  93     2.677659730579   118.74338562   177.70278157
 C     96  94  93     2.693715936990   119.94173557   359.03760749
 H     80  22  21     2.044898889584    74.42931639     6.19955080
 C     98  96  94     2.642512832321   118.68055424     1.96224347
 C     22  21  19     2.284565157014   174.65868301   187.62591503
 H     79  77  67     3.340597778688    13.58620220   293.40335378
 C     92  87  79     2.658485854438    75.22069986     8.87583106
 C    103  92  87     2.612362923497   117.17465854   199.23902643
 H    104 103  92     2.048105899699   120.06410724   180.22536552
 C    104 103  92     2.665188384343   122.73184043     0.42752868
 H     87  79  77     3.350839180209    97.17977928    76.50439849
 C    106 104 103     2.677413654257   119.30728178   359.77554419
 H     92  87  79     2.046456797524    48.88349876   166.36355117
 C     92  87  79     2.607502331543   155.68317039   232.66102681
 H    110  92  87     2.046670268839   118.11884742   308.25609576
 C     95  94  93     2.688384988804   119.46777900     0.61766723
 C     95  94  93     2.661677780882   119.44191714   181.01043999
 C    107  87  79     2.067059550051    35.85455854     2.21685044
 C     77  67  61     2.283584860200    30.49582442    98.09353544
 C     97  96  94     2.626716678627   122.67200949     1.77864897
 H     97  96  94     2.044434765153   117.78759119   182.32281077
 H    113  95  94     2.043350325372   117.29118672   180.17989250
 C    116  97  96     2.899618361396   119.52007071   179.96028042
 C    119 116  97     2.897296373486   112.26834351   180.48985575
 H    120 119 116     2.067018746836   111.87940624    60.82908432
 H    120 119 116     2.066802906165   109.52371671   180.06988901
 C    119 116  97     2.908866947533   109.36429945    60.39350545
 H    120 119 116     2.066708584648   111.80938483   299.26871120
 H    123 119 116     2.066935850784   110.94078988    60.55986684
 C    119 116  97     2.908678887914   109.40798725   300.67914852
 H    123 119 116     2.068672064676   110.25957771   180.25819866
 H    123 119 116     2.064849901844   111.82303623   300.14142247
 H    114 107  87     2.066631299183   107.52520586   115.91762398
 H    126 119 116     2.068657244435   110.29651530   179.67012038
 H    126 119 116     2.067153614753   110.91500313   299.38577577
 H    126 119 116     2.064874791642   111.84483208    59.80000362
 C     86  84  82     2.896969975900   119.89667766   178.70435379
 C    133  86  84     2.909668202665   109.15892726   299.07996166
 H    134 133  86     2.065020392302   111.71875551    59.49332743
 H    134 133  86     2.068622282818   110.36600918   179.44567223
 C    133  86  84     2.908979663263   109.66158731    58.73681263
 H    134 133  86     2.067001944840   110.90549487   299.23330914
 H    137 133  86     2.069124723959   110.23428452   180.55227640
 C    133  86  84     2.897831460088   112.30636580   179.16697072
 H    137 133  86     2.064824509120   111.96220176   300.31534759
 H    137 133  86     2.066924931701   111.15374159    60.69546208
 H    102  79 129     3.337409427277    60.19074940    71.90729562
 H    140 133  86     2.067084784545   109.57831034   179.95663312
 H    140 133  86     2.067287815021   111.98343048   299.28615236
 H    140 133  86     2.066701573055   111.85636966    60.91631297
 C    114 107  87     2.898082683868   111.90926810   236.27292286
 C    147 114 107     2.908234603088   108.21057935   300.12591921
 H    148 147 114     2.067075181895   110.92509093    62.18084953
 H    148 147 114     2.064882937759   111.72250617   182.44881180
 C    102  79 143     2.064814709787    36.12607827   322.51765013
 H    148 147 114     2.068805254356   110.33666765   302.39649146

---------------------
BASIS SET INFORMATION
---------------------
There are 2 groups of distinct atoms

 Group   1 Type C   : 10s4p1d contracted to 3s2p1d pattern {631/31/1}
 Group   2 Type H   : 4s1p contracted to 2s1p pattern {31/1}

Atom   0C    basis set group =>   1
Atom   1C    basis set group =>   1
Atom   2C    basis set group =>   1
Atom   3H    basis set group =>   2
Atom   4C    basis set group =>   1
Atom   5H    basis set group =>   2
Atom   6C    basis set group =>   1
Atom   7H    basis set group =>   2
Atom   8C    basis set group =>   1
Atom   9H    basis set group =>   2
Atom  10C    basis set group =>   1
Atom  11H    basis set group =>   2
Atom  12C    basis set group =>   1
Atom  13C    basis set group =>   1
Atom  14C    basis set group =>   1
Atom  15C    basis set group =>   1
Atom  16C    basis set group =>   1
Atom  17C    basis set group =>   1
Atom  18C    basis set group =>   1
Atom  19H    basis set group =>   2
Atom  20C    basis set group =>   1
Atom  21C    basis set group =>   1
Atom  22H    basis set group =>   2
Atom  23C    basis set group =>   1
Atom  24C    basis set group =>   1
Atom  25H    basis set group =>   2
Atom  26C    basis set group =>   1
Atom  27H    basis set group =>   2
Atom  28C    basis set group =>   1
Atom  29H    basis set group =>   2
Atom  30C    basis set group =>   1
Atom  31H    basis set group =>   2
Atom  32C    basis set group =>   1
Atom  33C    basis set group =>   1
Atom  34C    basis set group =>   1
Atom  35C    basis set group =>   1
Atom  36C    basis set group =>   1
Atom  37H    basis set group =>   2
Atom  38H    basis set group =>   2
Atom  39C    basis set group =>   1
Atom  40C    basis set group =>   1
Atom  41H    basis set group =>   2
Atom  42H    basis set group =>   2
Atom  43C    basis set group =>   1
Atom  44H    basis set group =>   2
Atom  45H    basis set group =>   2
Atom  46C    basis set group =>   1
Atom  47H    basis set group =>   2
Atom  48H    basis set group =>   2
Atom  49H    basis set group =>   2
Atom  50H    basis set group =>   2
Atom  51H    basis set group =>   2
Atom  52H    basis set group =>   2
Atom  53C    basis set group =>   1
Atom  54C    basis set group =>   1
Atom  55H    basis set group =>   2
Atom  56H    basis set group =>   2
Atom  57C    basis set group =>   1
Atom  58H    basis set group =>   2
Atom  59H    basis set group =>   2
Atom  60C    basis set group =>   1
Atom  61H    basis set group =>   2
Atom  62H    basis set group =>   2
Atom  63H    basis set group =>   2
Atom  64H    basis set group =>   2
Atom  65H    basis set group =>   2
Atom  66H    basis set group =>   2
Atom  67C    basis set group =>   1
Atom  68C    basis set group =>   1
Atom  69H    basis set group =>   2
Atom  70H    basis set group =>   2
Atom  71C    basis set group =>   1
Atom  72H    basis set group =>   2
Atom  73H    basis set group =>   2
Atom  74H    basis set group =>   2
Atom  75C    basis set group =>   1
Atom  76C    basis set group =>   1
Atom  77H    basis set group =>   2
Atom  78H    basis set group =>   2
Atom  79C    basis set group =>   1
Atom  80C    basis set group =>   1
Atom  81C    basis set group =>   1
Atom  82H    basis set group =>   2
Atom  83C    basis set group =>   1
Atom  84H    basis set group =>   2
Atom  85C    basis set group =>   1
Atom  86H    basis set group =>   2
Atom  87C    basis set group =>   1
Atom  88H    basis set group =>   2
Atom  89C    basis set group =>   1
Atom  90H    basis set group =>   2
Atom  91C    basis set group =>   1
Atom  92C    basis set group =>   1
Atom  93C    basis set group =>   1
Atom  94C    basis set group =>   1
Atom  95C    basis set group =>   1
Atom  96C    basis set group =>   1
Atom  97C    basis set group =>   1
Atom  98H    basis set group =>   2
Atom  99C    basis set group =>   1
Atom 100C    basis set group =>   1
Atom 101H    basis set group =>   2
Atom 102C    basis set group =>   1
Atom 103C    basis set group =>   1
Atom 104H    basis set group =>   2
Atom 105C    basis set group =>   1
Atom 106H    basis set group =>   2
Atom 107C    basis set group =>   1
Atom 108H    basis set group =>   2
Atom 109C    basis set group =>   1
Atom 110H    basis set group =>   2
Atom 111C    basis set group =>   1
Atom 112C    basis set group =>   1
Atom 113C    basis set group =>   1
Atom 114C    basis set group =>   1
Atom 115C    basis set group =>   1
Atom 116H    basis set group =>   2
Atom 117H    basis set group =>   2
Atom 118C    basis set group =>   1
Atom 119C    basis set group =>   1
Atom 120H    basis set group =>   2
Atom 121H    basis set group =>   2
Atom 122C    basis set group =>   1
Atom 123H    basis set group =>   2
Atom 124H    basis set group =>   2
Atom 125C    basis set group =>   1
Atom 126H    basis set group =>   2
Atom 127H    basis set group =>   2
Atom 128H    basis set group =>   2
Atom 129H    basis set group =>   2
Atom 130H    basis set group =>   2
Atom 131H    basis set group =>   2
Atom 132C    basis set group =>   1
Atom 133C    basis set group =>   1
Atom 134H    basis set group =>   2
Atom 135H    basis set group =>   2
Atom 136C    basis set group =>   1
Atom 137H    basis set group =>   2
Atom 138H    basis set group =>   2
Atom 139C    basis set group =>   1
Atom 140H    basis set group =>   2
Atom 141H    basis set group =>   2
Atom 142H    basis set group =>   2
Atom 143H    basis set group =>   2
Atom 144H    basis set group =>   2
Atom 145H    basis set group =>   2
Atom 146C    basis set group =>   1
Atom 147C    basis set group =>   1
Atom 148H    basis set group =>   2
Atom 149H    basis set group =>   2
Atom 150C    basis set group =>   1
Atom 151H    basis set group =>   2
---------------------------------
AUXILIARY/J BASIS SET INFORMATION
---------------------------------
There are 2 groups of distinct atoms

 Group   1 Type C   : 13s11p10d2f contracted to 13s11p10d2f pattern {1111111111111/11111111111/1111111111/11}
 Group   2 Type H   : 10s2p1d contracted to 10s2p1d pattern {1111111111/11/1}

Atom   0C    basis set group =>   1
Atom   1C    basis set group =>   1
Atom   2C    basis set group =>   1
Atom   3H    basis set group =>   2
Atom   4C    basis set group =>   1
Atom   5H    basis set group =>   2
Atom   6C    basis set group =>   1
Atom   7H    basis set group =>   2
Atom   8C    basis set group =>   1
Atom   9H    basis set group =>   2
Atom  10C    basis set group =>   1
Atom  11H    basis set group =>   2
Atom  12C    basis set group =>   1
Atom  13C    basis set group =>   1
Atom  14C    basis set group =>   1
Atom  15C    basis set group =>   1
Atom  16C    basis set group =>   1
Atom  17C    basis set group =>   1
Atom  18C    basis set group =>   1
Atom  19H    basis set group =>   2
Atom  20C    basis set group =>   1
Atom  21C    basis set group =>   1
Atom  22H    basis set group =>   2
Atom  23C    basis set group =>   1
Atom  24C    basis set group =>   1
Atom  25H    basis set group =>   2
Atom  26C    basis set group =>   1
Atom  27H    basis set group =>   2
Atom  28C    basis set group =>   1
Atom  29H    basis set group =>   2
Atom  30C    basis set group =>   1
Atom  31H    basis set group =>   2
Atom  32C    basis set group =>   1
Atom  33C    basis set group =>   1
Atom  34C    basis set group =>   1
Atom  35C    basis set group =>   1
Atom  36C    basis set group =>   1
Atom  37H    basis set group =>   2
Atom  38H    basis set group =>   2
Atom  39C    basis set group =>   1
Atom  40C    basis set group =>   1
Atom  41H    basis set group =>   2
Atom  42H    basis set group =>   2
Atom  43C    basis set group =>   1
Atom  44H    basis set group =>   2
Atom  45H    basis set group =>   2
Atom  46C    basis set group =>   1
Atom  47H    basis set group =>   2
Atom  48H    basis set group =>   2
Atom  49H    basis set group =>   2
Atom  50H    basis set group =>   2
Atom  51H    basis set group =>   2
Atom  52H    basis set group =>   2
Atom  53C    basis set group =>   1
Atom  54C    basis set group =>   1
Atom  55H    basis set group =>   2
Atom  56H    basis set group =>   2
Atom  57C    basis set group =>   1
Atom  58H    basis set group =>   2
Atom  59H    basis set group =>   2
Atom  60C    basis set group =>   1
Atom  61H    basis set group =>   2
Atom  62H    basis set group =>   2
Atom  63H    basis set group =>   2
Atom  64H    basis set group =>   2
Atom  65H    basis set group =>   2
Atom  66H    basis set group =>   2
Atom  67C    basis set group =>   1
Atom  68C    basis set group =>   1
Atom  69H    basis set group =>   2
Atom  70H    basis set group =>   2
Atom  71C    basis set group =>   1
Atom  72H    basis set group =>   2
Atom  73H    basis set group =>   2
Atom  74H    basis set group =>   2
Atom  75C    basis set group =>   1
Atom  76C    basis set group =>   1
Atom  77H    basis set group =>   2
Atom  78H    basis set group =>   2
Atom  79C    basis set group =>   1
Atom  80C    basis set group =>   1
Atom  81C    basis set group =>   1
Atom  82H    basis set group =>   2
Atom  83C    basis set group =>   1
Atom  84H    basis set group =>   2
Atom  85C    basis set group =>   1
Atom  86H    basis set group =>   2
Atom  87C    basis set group =>   1
Atom  88H    basis set group =>   2
Atom  89C    basis set group =>   1
Atom  90H    basis set group =>   2
Atom  91C    basis set group =>   1
Atom  92C    basis set group =>   1
Atom  93C    basis set group =>   1
Atom  94C    basis set group =>   1
Atom  95C    basis set group =>   1
Atom  96C    basis set group =>   1
Atom  97C    basis set group =>   1
Atom  98H    basis set group =>   2
Atom  99C    basis set group =>   1
Atom 100C    basis set group =>   1
Atom 101H    basis set group =>   2
Atom 102C    basis set group =>   1
Atom 103C    basis set group =>   1
Atom 104H    basis set group =>   2
Atom 105C    basis set group =>   1
Atom 106H    basis set group =>   2
Atom 107C    basis set group =>   1
Atom 108H    basis set group =>   2
Atom 109C    basis set group =>   1
Atom 110H    basis set group =>   2
Atom 111C    basis set group =>   1
Atom 112C    basis set group =>   1
Atom 113C    basis set group =>   1
Atom 114C    basis set group =>   1
Atom 115C    basis set group =>   1
Atom 116H    basis set group =>   2
Atom 117H    basis set group =>   2
Atom 118C    basis set group =>   1
Atom 119C    basis set group =>   1
Atom 120H    basis set group =>   2
Atom 121H    basis set group =>   2
Atom 122C    basis set group =>   1
Atom 123H    basis set group =>   2
Atom 124H    basis set group =>   2
Atom 125C    basis set group =>   1
Atom 126H    basis set group =>   2
Atom 127H    basis set group =>   2
Atom 128H    basis set group =>   2
Atom 129H    basis set group =>   2
Atom 130H    basis set group =>   2
Atom 131H    basis set group =>   2
Atom 132C    basis set group =>   1
Atom 133C    basis set group =>   1
Atom 134H    basis set group =>   2
Atom 135H    basis set group =>   2
Atom 136C    basis set group =>   1
Atom 137H    basis set group =>   2
Atom 138H    basis set group =>   2
Atom 139C    basis set group =>   1
Atom 140H    basis set group =>   2
Atom 141H    basis set group =>   2
Atom 142H    basis set group =>   2
Atom 143H    basis set group =>   2
Atom 144H    basis set group =>   2
Atom 145H    basis set group =>   2
Atom 146C    basis set group =>   1
Atom 147C    basis set group =>   1
Atom 148H    basis set group =>   2
Atom 149H    basis set group =>   2
Atom 150C    basis set group =>   1
Atom 151H    basis set group =>   2
---------------------------------
AUXILIARY/C BASIS SET INFORMATION
---------------------------------
There are 2 groups of distinct atoms

 Group   1 Type C   : 13s11p10d2f contracted to 13s11p10d2f pattern {1111111111111/11111111111/1111111111/11}
 Group   2 Type H   : 10s2p1d contracted to 10s2p1d pattern {1111111111/11/1}

Atom   0C    basis set group =>   1
Atom   1C    basis set group =>   1
Atom   2C    basis set group =>   1
Atom   3H    basis set group =>   2
Atom   4C    basis set group =>   1
Atom   5H    basis set group =>   2
Atom   6C    basis set group =>   1
Atom   7H    basis set group =>   2
Atom   8C    basis set group =>   1
Atom   9H    basis set group =>   2
Atom  10C    basis set group =>   1
Atom  11H    basis set group =>   2
Atom  12C    basis set group =>   1
Atom  13C    basis set group =>   1
Atom  14C    basis set group =>   1
Atom  15C    basis set group =>   1
Atom  16C    basis set group =>   1
Atom  17C    basis set group =>   1
Atom  18C    basis set group =>   1
Atom  19H    basis set group =>   2
Atom  20C    basis set group =>   1
Atom  21C    basis set group =>   1
Atom  22H    basis set group =>   2
Atom  23C    basis set group =>   1
Atom  24C    basis set group =>   1
Atom  25H    basis set group =>   2
Atom  26C    basis set group =>   1
Atom  27H    basis set group =>   2
Atom  28C    basis set group =>   1
Atom  29H    basis set group =>   2
Atom  30C    basis set group =>   1
Atom  31H    basis set group =>   2
Atom  32C    basis set group =>   1
Atom  33C    basis set group =>   1
Atom  34C    basis set group =>   1
Atom  35C    basis set group =>   1
Atom  36C    basis set group =>   1
Atom  37H    basis set group =>   2
Atom  38H    basis set group =>   2
Atom  39C    basis set group =>   1
Atom  40C    basis set group =>   1
Atom  41H    basis set group =>   2
Atom  42H    basis set group =>   2
Atom  43C    basis set group =>   1
Atom  44H    basis set group =>   2
Atom  45H    basis set group =>   2
Atom  46C    basis set group =>   1
Atom  47H    basis set group =>   2
Atom  48H    basis set group =>   2
Atom  49H    basis set group =>   2
Atom  50H    basis set group =>   2
Atom  51H    basis set group =>   2
Atom  52H    basis set group =>   2
Atom  53C    basis set group =>   1
Atom  54C    basis set group =>   1
Atom  55H    basis set group =>   2
Atom  56H    basis set group =>   2
Atom  57C    basis set group =>   1
Atom  58H    basis set group =>   2
Atom  59H    basis set group =>   2
Atom  60C    basis set group =>   1
Atom  61H    basis set group =>   2
Atom  62H    basis set group =>   2
Atom  63H    basis set group =>   2
Atom  64H    basis set group =>   2
Atom  65H    basis set group =>   2
Atom  66H    basis set group =>   2
Atom  67C    basis set group =>   1
Atom  68C    basis set group =>   1
Atom  69H    basis set group =>   2
Atom  70H    basis set group =>   2
Atom  71C    basis set group =>   1
Atom  72H    basis set group =>   2
Atom  73H    basis set group =>   2
Atom  74H    basis set group =>   2
Atom  75C    basis set group =>   1
Atom  76C    basis set group =>   1
Atom  77H    basis set group =>   2
Atom  78H    basis set group =>   2
Atom  79C    basis set group =>   1
Atom  80C    basis set group =>   1
Atom  81C    basis set group =>   1
Atom  82H    basis set group =>   2
Atom  83C    basis set group =>   1
Atom  84H    basis set group =>   2
Atom  85C    basis set group =>   1
Atom  86H    basis set group =>   2
Atom  87C    basis set group =>   1
Atom  88H    basis set group =>   2
Atom  89C    basis set group =>   1
Atom  90H    basis set group =>   2
Atom  91C    basis set group =>   1
Atom  92C    basis set group =>   1
Atom  93C    basis set group =>   1
Atom  94C    basis set group =>   1
Atom  95C    basis set group =>   1
Atom  96C    basis set group =>   1
Atom  97C    basis set group =>   1
Atom  98H    basis set group =>   2
Atom  99C    basis set group =>   1
Atom 100C    basis set group =>   1
Atom 101H    basis set group =>   2
Atom 102C    basis set group =>   1
Atom 103C    basis set group =>   1
Atom 104H    basis set group =>   2
Atom 105C    basis set group =>   1
Atom 106H    basis set group =>   2
Atom 107C    basis set group =>   1
Atom 108H    basis set group =>   2
Atom 109C    basis set group =>   1
Atom 110H    basis set group =>   2
Atom 111C    basis set group =>   1
Atom 112C    basis set group =>   1
Atom 113C    basis set group =>   1
Atom 114C    basis set group =>   1
Atom 115C    basis set group =>   1
Atom 116H    basis set group =>   2
Atom 117H    basis set group =>   2
Atom 118C    basis set group =>   1
Atom 119C    basis set group =>   1
Atom 120H    basis set group =>   2
Atom 121H    basis set group =>   2
Atom 122C    basis set group =>   1
Atom 123H    basis set group =>   2
Atom 124H    basis set group =>   2
Atom 125C    basis set group =>   1
Atom 126H    basis set group =>   2
Atom 127H    basis set group =>   2
Atom 128H    basis set group =>   2
Atom 129H    basis set group =>   2
Atom 130H    basis set group =>   2
Atom 131H    basis set group =>   2
Atom 132C    basis set group =>   1
Atom 133C    basis set group =>   1
Atom 134H    basis set group =>   2
Atom 135H    basis set group =>   2
Atom 136C    basis set group =>   1
Atom 137H    basis set group =>   2
Atom 138H    basis set group =>   2
Atom 139C    basis set group =>   1
Atom 140H    basis set group =>   2
Atom 141H    basis set group =>   2
Atom 142H    basis set group =>   2
Atom 143H    basis set group =>   2
Atom 144H    basis set group =>   2
Atom 145H    basis set group =>   2
Atom 146C    basis set group =>   1
Atom 147C    basis set group =>   1
Atom 148H    basis set group =>   2
Atom 149H    basis set group =>   2
Atom 150C    basis set group =>   1
Atom 151H    basis set group =>   2
----------------------------------
AUXILIARY/JK BASIS SET INFORMATION
----------------------------------
There are 2 groups of distinct atoms

 Group   1 Type C   : 13s11p10d2f contracted to 13s11p10d2f pattern {1111111111111/11111111111/1111111111/11}
 Group   2 Type H   : 10s2p1d contracted to 10s2p1d pattern {1111111111/11/1}

Atom   0C    basis set group =>   1
Atom   1C    basis set group =>   1
Atom   2C    basis set group =>   1
Atom   3H    basis set group =>   2
Atom   4C    basis set group =>   1
Atom   5H    basis set group =>   2
Atom   6C    basis set group =>   1
Atom   7H    basis set group =>   2
Atom   8C    basis set group =>   1
Atom   9H    basis set group =>   2
Atom  10C    basis set group =>   1
Atom  11H    basis set group =>   2
Atom  12C    basis set group =>   1
Atom  13C    basis set group =>   1
Atom  14C    basis set group =>   1
Atom  15C    basis set group =>   1
Atom  16C    basis set group =>   1
Atom  17C    basis set group =>   1
Atom  18C    basis set group =>   1
Atom  19H    basis set group =>   2
Atom  20C    basis set group =>   1
Atom  21C    basis set group =>   1
Atom  22H    basis set group =>   2
Atom  23C    basis set group =>   1
Atom  24C    basis set group =>   1
Atom  25H    basis set group =>   2
Atom  26C    basis set group =>   1
Atom  27H    basis set group =>   2
Atom  28C    basis set group =>   1
Atom  29H    basis set group =>   2
Atom  30C    basis set group =>   1
Atom  31H    basis set group =>   2
Atom  32C    basis set group =>   1
Atom  33C    basis set group =>   1
Atom  34C    basis set group =>   1
Atom  35C    basis set group =>   1
Atom  36C    basis set group =>   1
Atom  37H    basis set group =>   2
Atom  38H    basis set group =>   2
Atom  39C    basis set group =>   1
Atom  40C    basis set group =>   1
Atom  41H    basis set group =>   2
Atom  42H    basis set group =>   2
Atom  43C    basis set group =>   1
Atom  44H    basis set group =>   2
Atom  45H    basis set group =>   2
Atom  46C    basis set group =>   1
Atom  47H    basis set group =>   2
Atom  48H    basis set group =>   2
Atom  49H    basis set group =>   2
Atom  50H    basis set group =>   2
Atom  51H    basis set group =>   2
Atom  52H    basis set group =>   2
Atom  53C    basis set group =>   1
Atom  54C    basis set group =>   1
Atom  55H    basis set group =>   2
Atom  56H    basis set group =>   2
Atom  57C    basis set group =>   1
Atom  58H    basis set group =>   2
Atom  59H    basis set group =>   2
Atom  60C    basis set group =>   1
Atom  61H    basis set group =>   2
Atom  62H    basis set group =>   2
Atom  63H    basis set group =>   2
Atom  64H    basis set group =>   2
Atom  65H    basis set group =>   2
Atom  66H    basis set group =>   2
Atom  67C    basis set group =>   1
Atom  68C    basis set group =>   1
Atom  69H    basis set group =>   2
Atom  70H    basis set group =>   2
Atom  71C    basis set group =>   1
Atom  72H    basis set group =>   2
Atom  73H    basis set group =>   2
Atom  74H    basis set group =>   2
Atom  75C    basis set group =>   1
Atom  76C    basis set group =>   1
Atom  77H    basis set group =>   2
Atom  78H    basis set group =>   2
Atom  79C    basis set group =>   1
Atom  80C    basis set group =>   1
Atom  81C    basis set group =>   1
Atom  82H    basis set group =>   2
Atom  83C    basis set group =>   1
Atom  84H    basis set group =>   2
Atom  85C    basis set group =>   1
Atom  86H    basis set group =>   2
Atom  87C    basis set group =>   1
Atom  88H    basis set group =>   2
Atom  89C    basis set group =>   1
Atom  90H    basis set group =>   2
Atom  91C    basis set group =>   1
Atom  92C    basis set group =>   1
Atom  93C    basis set group =>   1
Atom  94C    basis set group =>   1
Atom  95C    basis set group =>   1
Atom  96C    basis set group =>   1
Atom  97C    basis set group =>   1
Atom  98H    basis set group =>   2
Atom  99C    basis set group =>   1
Atom 100C    basis set group =>   1
Atom 101H    basis set group =>   2
Atom 102C    basis set group =>   1
Atom 103C    basis set group =>   1
Atom 104H    basis set group =>   2
Atom 105C    basis set group =>   1
Atom 106H    basis set group =>   2
Atom 107C    basis set group =>   1
Atom 108H    basis set group =>   2
Atom 109C    basis set group =>   1
Atom 110H    basis set group =>   2
Atom 111C    basis set group =>   1
Atom 112C    basis set group =>   1
Atom 113C    basis set group =>   1
Atom 114C    basis set group =>   1
Atom 115C    basis set group =>   1
Atom 116H    basis set group =>   2
Atom 117H    basis set group =>   2
Atom 118C    basis set group =>   1
Atom 119C    basis set group =>   1
Atom 120H    basis set group =>   2
Atom 121H    basis set group =>   2
Atom 122C    basis set group =>   1
Atom 123H    basis set group =>   2
Atom 124H    basis set group =>   2
Atom 125C    basis set group =>   1
Atom 126H    basis set group =>   2
Atom 127H    basis set group =>   2
Atom 128H    basis set group =>   2
Atom 129H    basis set group =>   2
Atom 130H    basis set group =>   2
Atom 131H    basis set group =>   2
Atom 132C    basis set group =>   1
Atom 133C    basis set group =>   1
Atom 134H    basis set group =>   2
Atom 135H    basis set group =>   2
Atom 136C    basis set group =>   1
Atom 137H    basis set group =>   2
Atom 138H    basis set group =>   2
Atom 139C    basis set group =>   1
Atom 140H    basis set group =>   2
Atom 141H    basis set group =>   2
Atom 142H    basis set group =>   2
Atom 143H    basis set group =>   2
Atom 144H    basis set group =>   2
Atom 145H    basis set group =>   2
Atom 146C    basis set group =>   1
Atom 147C    basis set group =>   1
Atom 148H    basis set group =>   2
Atom 149H    basis set group =>   2
Atom 150C    basis set group =>   1
Atom 151H    basis set group =>   2
MPIWRAPPER IN -np 8 /gpfs/research/software/orca/orca_5_0_1_linux_x86-64_openmpi411/orca_gtoint_mpi mono_alkyne_singlet_uks_cam_b3lyp_631gdp.int.tmp mono_alkyne_singlet_uks_cam_b3lyp_631gdp
MPIWRAPPER OUT -n 8 /gpfs/research/software/orca/orca_5_0_1_linux_x86-64_openmpi411/orca_gtoint_mpi mono_alkyne_singlet_uks_cam_b3lyp_631gdp.int.tmp mono_alkyne_singlet_uks_cam_b3lyp_631gdp


           ************************************************************
           *        Program running with 8 parallel MPI-processes     *
           *              working on a common directory               *
           ************************************************************
[...]
 1169( 0) :     2.559133 a.u.    69.638 eV
 1170( 0) :     2.560509 a.u.    69.675 eV
 1171( 0) :     2.567687 a.u.    69.870 eV
 1172( 0) :     2.577463 a.u.    70.136 eV
 1173( 0) :     2.579130 a.u.    70.182 eV
 1174( 0) :     2.582772 a.u.    70.281 eV
 1175( 0) :     2.588690 a.u.    70.442 eV
 1176( 0) :     2.589968 a.u.    70.477 eV
 1177( 0) :     2.595387 a.u.    70.624 eV
 1178( 0) :     2.606409 a.u.    70.924 eV
 1179( 0) :     2.607947 a.u.    70.966 eV
 1180( 0) :     2.613730 a.u.    71.123 eV
 1181( 0) :     2.616366 a.u.    71.195 eV
 1182( 0) :     2.618432 a.u.    71.251 eV
 1183( 0) :     2.620579 a.u.    71.310 eV
 1184( 0) :     2.625566 a.u.    71.445 eV
 1185( 0) :     2.626725 a.u.    71.477 eV
 1186( 0) :     2.627839 a.u.    71.507 eV
 1187( 0) :     2.628177 a.u.    71.516 eV
 1188( 0) :     2.629659 a.u.    71.557 eV
 1189( 0) :     2.637602 a.u.    71.773 eV
 1190( 0) :     2.638406 a.u.    71.795 eV
 1191( 0) :     2.642245 a.u.    71.899 eV
 1192( 0) :     2.645123 a.u.    71.977 eV
 1193( 0) :     2.647444 a.u.    72.041 eV
 1194( 0) :     2.652809 a.u.    72.187 eV
 1195( 0) :     2.655848 a.u.    72.269 eV
 1196( 0) :     2.658895 a.u.    72.352 eV
 1197( 0) :     2.661331 a.u.    72.418 eV
 1198( 0) :     2.663828 a.u.    72.486 eV
 1199( 0) :     2.668384 a.u.    72.610 eV
 1200( 0) :     2.671181 a.u.    72.687 eV
 1201( 0) :     2.674772 a.u.    72.784 eV
 1202( 0) :     2.675989 a.u.    72.817 eV
 1203( 0) :     2.682590 a.u.    72.997 eV
 1204( 0) :     2.685199 a.u.    73.068 eV
 1205( 0) :     2.690169 a.u.    73.203 eV
 1206( 0) :     2.693933 a.u.    73.306 eV
 1207( 0) :     2.694766 a.u.    73.328 eV
 1208( 0) :     2.695226 a.u.    73.341 eV
 1209( 0) :     2.699809 a.u.    73.466 eV
 1210( 0) :     2.704691 a.u.    73.598 eV
 1211( 0) :     2.705576 a.u.    73.622 eV
 1212( 0) :     2.708901 a.u.    73.713 eV
 1213( 0) :     2.709364 a.u.    73.726 eV
 1214( 0) :     2.711209 a.u.    73.776 eV
 1215( 0) :     2.715040 a.u.    73.880 eV
 1216( 0) :     2.715280 a.u.    73.887 eV
 1217( 0) :     2.717281 a.u.    73.941 eV
 1218( 0) :     2.718820 a.u.    73.983 eV
 1219( 0) :     2.726634 a.u.    74.195 eV
 1220( 0) :     2.732329 a.u.    74.350 eV
 1221( 0) :     2.735032 a.u.    74.424 eV
 1222( 0) :     2.736458 a.u.    74.463 eV
 1223( 0) :     2.738747 a.u.    74.525 eV
 1224( 0) :     2.742588 a.u.    74.630 eV
 1225( 0) :     2.744222 a.u.    74.674 eV
 1226( 0) :     2.754379 a.u.    74.950 eV
 1227( 0) :     2.755666 a.u.    74.985 eV
 1228( 0) :     2.759231 a.u.    75.082 eV
 1229( 0) :     2.762671 a.u.    75.176 eV
 1230( 0) :     2.769521 a.u.    75.362 eV
 1231( 0) :     2.775378 a.u.    75.522 eV
 1232( 0) :     2.779013 a.u.    75.621 eV
 1233( 0) :     2.786342 a.u.    75.820 eV
 1234( 0) :     2.790520 a.u.    75.934 eV
 1235( 0) :     2.793054 a.u.    76.003 eV
 1236( 0) :     2.795928 a.u.    76.081 eV
 1237( 0) :     2.798572 a.u.    76.153 eV
 1238( 0) :     2.800898 a.u.    76.216 eV
 1239( 0) :     2.801320 a.u.    76.228 eV
 1240( 0) :     2.808225 a.u.    76.416 eV
 1241( 0) :     2.810044 a.u.    76.465 eV
 1242( 0) :     2.813303 a.u.    76.554 eV
 1243( 0) :     2.815435 a.u.    76.612 eV
 1244( 0) :     2.817744 a.u.    76.675 eV
 1245( 0) :     2.819401 a.u.    76.720 eV
 1246( 0) :     2.820709 a.u.    76.755 eV
 1247( 0) :     2.820886 a.u.    76.760 eV
 1248( 0) :     2.823498 a.u.    76.831 eV
 1249( 0) :     2.824184 a.u.    76.850 eV
 1250( 0) :     2.824529 a.u.    76.859 eV
 1251( 0) :     2.826221 a.u.    76.905 eV
 1252( 0) :     2.826955 a.u.    76.925 eV
 1253( 0) :     2.828203 a.u.    76.959 eV
 1254( 0) :     2.828458 a.u.    76.966 eV
 1255( 0) :     2.829748 a.u.    77.001 eV
 1256( 0) :     2.830844 a.u.    77.031 eV
 1257( 0) :     2.831036 a.u.    77.036 eV
 1258( 0) :     2.833378 a.u.    77.100 eV
 1259( 0) :     2.838255 a.u.    77.233 eV
 1260( 0) :     2.841567 a.u.    77.323 eV
 1261( 0) :     2.843837 a.u.    77.385 eV
 1262( 0) :     2.845337 a.u.    77.426 eV
 1263( 0) :     2.854839 a.u.    77.684 eV
 1264( 0) :     2.861130 a.u.    77.855 eV
 1265( 0) :     2.864511 a.u.    77.947 eV
 1266( 0) :     2.866467 a.u.    78.001 eV
 1267( 0) :     2.870366 a.u.    78.107 eV
 1268( 0) :     2.878550 a.u.    78.329 eV
 1269( 0) :     2.889941 a.u.    78.639 eV
 1270( 0) :     2.894567 a.u.    78.765 eV
 1271( 0) :     2.895243 a.u.    78.784 eV
 1272( 0) :     2.899875 a.u.    78.910 eV
 1273( 0) :     2.903373 a.u.    79.005 eV
 1274( 0) :     2.904923 a.u.    79.047 eV
 1275( 0) :     2.905670 a.u.    79.067 eV
 1276( 0) :     2.909605 a.u.    79.174 eV
 1277( 0) :     2.912029 a.u.    79.240 eV
 1278( 0) :     2.912557 a.u.    79.255 eV
 1279( 0) :     2.919330 a.u.    79.439 eV
 1280( 0) :     2.921552 a.u.    79.499 eV
 1281( 0) :     2.924067 a.u.    79.568 eV
 1282( 0) :     2.925333 a.u.    79.602 eV
 1283( 0) :     2.926378 a.u.    79.631 eV
 1284( 0) :     2.929589 a.u.    79.718 eV
 1285( 0) :     2.943896 a.u.    80.107 eV
 1286( 0) :     2.946175 a.u.    80.170 eV
 1287( 0) :     2.947211 a.u.    80.198 eV
 1288( 0) :     2.948481 a.u.    80.232 eV
 1289( 0) :     2.949882 a.u.    80.270 eV
 1290( 0) :     2.950229 a.u.    80.280 eV
 1291( 0) :     2.950983 a.u.    80.300 eV
 1292( 0) :     2.951231 a.u.    80.307 eV
 1293( 0) :     2.957912 a.u.    80.489 eV
 1294( 0) :     2.959067 a.u.    80.520 eV
 1295( 0) :     2.961191 a.u.    80.578 eV
 1296( 0) :     2.962798 a.u.    80.622 eV
 1297( 0) :     2.963644 a.u.    80.645 eV
 1298( 0) :     2.963776 a.u.    80.648 eV
 1299( 0) :     2.964377 a.u.    80.665 eV
 1300( 0) :     2.964740 a.u.    80.675 eV
 1301( 0) :     2.972431 a.u.    80.884 eV
 1302( 0) :     2.975244 a.u.    80.961 eV
 1303( 0) :     2.980233 a.u.    81.096 eV
 1304( 0) :     2.981010 a.u.    81.117 eV
 1305( 0) :     2.986269 a.u.    81.261 eV
 1306( 0) :     2.994623 a.u.    81.488 eV
 1307( 0) :     3.003035 a.u.    81.717 eV
 1308( 0) :     3.008139 a.u.    81.856 eV
 1309( 0) :     3.013917 a.u.    82.013 eV
 1310( 0) :     3.020321 a.u.    82.187 eV
 1311( 0) :     3.021637 a.u.    82.223 eV
 1312( 0) :     3.022607 a.u.    82.249 eV
 1313( 0) :     3.023230 a.u.    82.266 eV
 1314( 0) :     3.023365 a.u.    82.270 eV
 1315( 0) :     3.024026 a.u.    82.288 eV
 1316( 0) :     3.024590 a.u.    82.303 eV
 1317( 0) :     3.033006 a.u.    82.532 eV
 1318( 0) :     3.037556 a.u.    82.656 eV
 1319( 0) :     3.044889 a.u.    82.856 eV
 1320( 0) :     3.049795 a.u.    82.989 eV
 1321( 0) :     3.055779 a.u.    83.152 eV
 1322( 0) :     3.057159 a.u.    83.190 eV
 1323( 0) :     3.059502 a.u.    83.253 eV
 1324( 0) :     3.059882 a.u.    83.264 eV
 1325( 0) :     3.072796 a.u.    83.615 eV
 1326( 0) :     3.073098 a.u.    83.623 eV
 1327( 0) :     3.075895 a.u.    83.699 eV
 1328( 0) :     3.087955 a.u.    84.028 eV
 1329( 0) :     3.088318 a.u.    84.037 eV
 1330( 0) :     3.088443 a.u.    84.041 eV
 1331( 0) :     3.093306 a.u.    84.173 eV
 1332( 0) :     3.116954 a.u.    84.817 eV
 1333( 0) :     3.119065 a.u.    84.874 eV
 1334( 0) :     3.121071 a.u.    84.929 eV
 1335( 0) :     3.123876 a.u.    85.005 eV
 1336( 0) :     3.125018 a.u.    85.036 eV
 1337( 0) :     3.126498 a.u.    85.076 eV
 1338( 0) :     3.131157 a.u.    85.203 eV
 1339( 0) :     3.150608 a.u.    85.732 eV
 1340( 0) :     3.169095 a.u.    86.235 eV
 1341( 0) :     3.173513 a.u.    86.356 eV
 1342( 0) :     3.174519 a.u.    86.383 eV
 1343( 0) :     3.178300 a.u.    86.486 eV
 1344( 0) :     3.203001 a.u.    87.158 eV
 1345( 0) :     3.230246 a.u.    87.899 eV
 1346( 0) :     3.234157 a.u.    88.006 eV
 1347( 0) :     3.236864 a.u.    88.080 eV
 1348( 0) :     3.249709 a.u.    88.429 eV
 1349( 0) :     3.251052 a.u.    88.466 eV
 1350( 0) :     3.260422 a.u.    88.721 eV
 1351( 0) :     3.264252 a.u.    88.825 eV
 1352( 0) :     3.265603 a.u.    88.862 eV
 1353( 0) :     3.268829 a.u.    88.949 eV
 1354( 0) :     3.269523 a.u.    88.968 eV
 1355( 0) :     3.272168 a.u.    89.040 eV
 1356( 0) :     3.297410 a.u.    89.727 eV
 1357( 0) :     3.298489 a.u.    89.756 eV
 1358( 0) :     3.301281 a.u.    89.832 eV
 1359( 0) :     3.311358 a.u.    90.107 eV
 1360( 0) :     3.313822 a.u.    90.174 eV
 1361( 0) :     3.317128 a.u.    90.264 eV
 1362( 0) :     3.319815 a.u.    90.337 eV
 1363( 0) :     3.319824 a.u.    90.337 eV
 1364( 0) :     3.320167 a.u.    90.346 eV
 1365( 0) :     3.320421 a.u.    90.353 eV
 1366( 0) :     3.320586 a.u.    90.358 eV
 1367( 0) :     3.321772 a.u.    90.390 eV
 1368( 0) :     3.324716 a.u.    90.470 eV
 1369( 0) :     3.324921 a.u.    90.476 eV
 1370( 0) :     3.330634 a.u.    90.631 eV
 1371( 0) :     3.332835 a.u.    90.691 eV
 1372( 0) :     3.344293 a.u.    91.003 eV
 1373( 0) :     3.346335 a.u.    91.058 eV
 1374( 0) :     3.348554 a.u.    91.119 eV
 1375( 0) :     3.348900 a.u.    91.128 eV
 1376( 0) :     3.349713 a.u.    91.150 eV
 1377( 0) :     3.350238 a.u.    91.165 eV
 1378( 0) :     3.363239 a.u.    91.518 eV
 1379( 0) :     3.368443 a.u.    91.660 eV
 1380( 0) :     3.384748 a.u.    92.104 eV
 1381( 0) :     3.411569 a.u.    92.834 eV
 1382( 0) :     3.433574 a.u.    93.432 eV
 1383( 0) :     3.436562 a.u.    93.514 eV
 1384( 0) :     3.446699 a.u.    93.789 eV
 1385( 0) :     3.455056 a.u.    94.017 eV
 1386( 0) :     3.457772 a.u.    94.091 eV
 1387( 0) :     3.468626 a.u.    94.386 eV
 1388( 0) :     3.473236 a.u.    94.512 eV
 1389( 0) :     3.502784 a.u.    95.316 eV
 1390( 0) :     3.503526 a.u.    95.336 eV
 1391( 0) :     3.503922 a.u.    95.347 eV
 1392( 0) :     3.505891 a.u.    95.400 eV
 1393( 0) :     3.506117 a.u.    95.406 eV
 1394( 0) :     3.506856 a.u.    95.426 eV
 1395( 0) :     3.506920 a.u.    95.428 eV
 1396( 0) :     3.509281 a.u.    95.492 eV
 1397( 0) :     3.509334 a.u.    95.494 eV
 1398( 0) :     3.509801 a.u.    95.507 eV
 1399( 0) :     3.510026 a.u.    95.513 eV
 1400( 0) :     3.512905 a.u.    95.591 eV
 1401( 0) :     3.516185 a.u.    95.680 eV
 1402( 0) :     3.518087 a.u.    95.732 eV
 1403( 0) :     3.518840 a.u.    95.753 eV
 1404( 0) :     3.520307 a.u.    95.792 eV
 1405( 0) :     3.520778 a.u.    95.805 eV
 1406( 0) :     3.520886 a.u.    95.808 eV
 1407( 0) :     3.522709 a.u.    95.858 eV
 1408( 0) :     3.525253 a.u.    95.927 eV
 1409( 0) :     3.527400 a.u.    95.985 eV
 1410( 0) :     3.534951 a.u.    96.191 eV
 1411( 0) :     3.537292 a.u.    96.255 eV
 1412( 0) :     3.544921 a.u.    96.462 eV
 1413( 0) :     3.548019 a.u.    96.547 eV
 1414( 0) :     3.549577 a.u.    96.589 eV
 1415( 0) :     3.559197 a.u.    96.851 eV
 1416( 0) :     3.569848 a.u.    97.140 eV
 1417( 0) :     3.586437 a.u.    97.592 eV
 1418( 0) :     3.591029 a.u.    97.717 eV
 1419( 0) :     3.599262 a.u.    97.941 eV
 1420( 0) :     3.601048 a.u.    97.989 eV
 1421( 0) :     3.601409 a.u.    97.999 eV
 1422( 0) :     3.602531 a.u.    98.030 eV
 1423( 0) :     3.602573 a.u.    98.031 eV
 1424( 0) :     3.603467 a.u.    98.055 eV
 1425( 0) :     3.606677 a.u.    98.143 eV
 1426( 0) :     3.610799 a.u.    98.255 eV
 1427( 0) :     3.611069 a.u.    98.262 eV
 1428( 0) :     3.623215 a.u.    98.593 eV
 1429( 0) :     3.625870 a.u.    98.665 eV
 1430( 0) :     3.629592 a.u.    98.766 eV
 1431( 0) :     3.629764 a.u.    98.771 eV
 1432( 0) :     3.630368 a.u.    98.787 eV
 1433( 0) :     3.635241 a.u.    98.920 eV
 1434( 0) :     3.718566 a.u.   101.187 eV
 1435( 0) :     3.806645 a.u.   103.584 eV
 1436( 0) :     3.814367 a.u.   103.794 eV
 1437( 0) :     3.835133 a.u.   104.359 eV
 1438( 0) :     3.902226 a.u.   106.185 eV
 1439( 0) :     3.909099 a.u.   106.372 eV
 1440( 0) :     3.934294 a.u.   107.058 eV
 1441( 0) :     3.949070 a.u.   107.460 eV
 1442( 0) :     4.108213 a.u.   111.790 eV
 1443( 0) :     4.108472 a.u.   111.797 eV
-------
TIMINGS
-------

Total SCF time: 0 days 0 hours 33 min 53 sec 

Total time                  ....    2033.188 sec
Sum of individual times     ....    2022.367 sec  ( 99.5%)

Fock matrix formation       ....    1863.613 sec  ( 91.7%)
  Split-RI-J                ....     207.648 sec  ( 11.1% of F)
  Chain of spheres X        ....    1602.706 sec  ( 86.0% of F)
  XC integration            ....      47.853 sec  (  2.6% of F)
    Basis function eval.    ....      12.612 sec  ( 26.4% of XC)
    Density eval.           ....      16.357 sec  ( 34.2% of XC)
    XC-Functional eval.     ....       4.462 sec  (  9.3% of XC)
    XC-Potential eval.      ....       8.838 sec  ( 18.5% of XC)
Diagonalization             ....      23.862 sec  (  1.2%)
Density matrix formation    ....       2.339 sec  (  0.1%)
Population analysis         ....      66.984 sec  (  3.3%)
Initial guess               ....       5.347 sec  (  0.3%)
Orbital Transformation      ....       0.000 sec  (  0.0%)
Orbital Orthonormalization  ....       0.000 sec  (  0.0%)
DIIS solution               ....      15.972 sec  (  0.8%)
Grid generation             ....      44.250 sec  (  2.2%)

Maximum memory used throughout the entire SCF-calculation: 547.2 MB

-------------------------   --------------------
FINAL SINGLE POINT ENERGY     -2940.032575560617
-------------------------   --------------------


                            ***************************************
                            *     ORCA property calculations      *
                            ***************************************

                                    ---------------------
                                    Active property flags
                                    ---------------------
   (+) Dipole Moment


------------------------------------------------------------------------------
                       ORCA ELECTRIC PROPERTIES CALCULATION
------------------------------------------------------------------------------

Dipole Moment Calculation                       ... on
Quadrupole Moment Calculation                   ... off
Polarizability Calculation                      ... off
GBWName                                         ... mono_alkyne_singlet_uks_cam_b3lyp_631gdp.gbw
Electron density                                ... mono_alkyne_singlet_uks_cam_b3lyp_631gdp.scfp
The origin for moment calculation is the CENTER OF MASS  = ( 6.868387,  2.101870 -1.675988)

-------------
DIPOLE MOMENT
-------------
                                X             Y             Z
Electronic contribution:      0.15661      -0.83321       0.78270
Nuclear contribution   :     -0.17515       0.79338      -0.76699
                        -----------------------------------------
Total Dipole Moment    :     -0.01855      -0.03983       0.01571
                        -----------------------------------------
Magnitude (a.u.)       :      0.04666
Magnitude (Debye)      :      0.11861



--------------------
Rotational spectrum 
--------------------
 
Rotational constants in cm-1:     0.001015     0.000553     0.000366 
Rotational constants in MHz :    30.429892    16.565809    10.957655 

 Dipole components along the rotational axes: 
x,y,z [a.u.] :     0.032656    -0.031439     0.011072 
x,y,z [Debye]:     0.083006    -0.079912     0.028142 

 
MPIWRAPPER IN -np 8 /gpfs/research/software/orca/orca_5_0_1_linux_x86-64_openmpi411/orca_scfhess_mpi mono_alkyne_singlet_uks_cam_b3lyp_631gdp.scfhess.inp mono_alkyne_singlet_uks_cam_b3lyp_631gdp
MPIWRAPPER OUT -n 8 /gpfs/research/software/orca/orca_5_0_1_linux_x86-64_openmpi411/orca_scfhess_mpi mono_alkyne_singlet_uks_cam_b3lyp_631gdp.scfhess.inp mono_alkyne_singlet_uks_cam_b3lyp_631gdp


           ************************************************************
           *        Program running with 8 parallel MPI-processes     *
           *              working on a common directory               *
           ************************************************************

-------------------------------------------------------------------------------
                               ORCA SCF HESSIAN
-------------------------------------------------------------------------------

Hessian of the Kohn-Sham DFT energy:
Kohn-Sham wavefunction type                      ... UKS
Hartree-Fock exchange scaling                    ...    0.190
Number of operators                              ...    2
Number of atoms                                  ...  152
Basis set dimensions                             ... 1444
Integral neglect threshold                       ... 1.0e-10
Integral primitive cutoff                        ... 1.0e-11

Setting up DFT Hessian calculations              ... 

HESS GRID
---------

General Integration Accuracy     IntAcc      ... 4.629
Radial Grid Type                 RadialGrid  ... OptM3 with GC (2021)
Angular Grid (max. ang.)         AngularGrid ... 5 (Lebedev-434)
Angular grid pruning method      GridPruning ... 4 (adaptive)
Weight generation scheme         WeightScheme... Becke
Basis function cutoff            BFCut       ... 1.0000e-10
Integration weight cutoff        WCut        ... 1.0000e-14
Angular grids for H and He will be reduced by one unit
Partially contracted basis set               ... off
Rotationally invariant grid construction     ... off

Total number of grid points                  ...  1057018
Total number of batches                      ...    16593
Average number of points per batch           ...       63
Average number of grid points per atom       ...     6954

Building densities                               ... done   (      0.8 sec)
Calculating rho(r) on the grid                   ... done   (      3.2 sec)
Building xc-kernel on the grid                   ... done   (      1.6 sec)
                                                     done   (     39.2 sec)

Nuclear repulsion Hessian  (SHARK)               ... done   (      0.0 sec)

----------------------------------------------
Forming right-hand sides of CP-SCF equations     ...
----------------------------------------------
One electron integral derivatives  (SHARK)       ... done   (     29.1 sec)
Transforming the overlap derivative matrices     ... done   (     62.6 sec)
Making the Q(x) pseudodensities                  ... done   (     62.7 sec)
Adding the E*S(x)*S(y) terms to the Hessian      ... done   (    168.2 sec)
Calculating energy weighted overlap derivatives  ... done   (     12.4 sec)

Two electron integral derivatives (SHARK-RI)     ... 
IBatch  1 (of 19):                                               209.2 sec
IBatch  2 (of 19):                                               218.2 sec
IBatch  3 (of 19):                                               221.0 sec
IBatch  4 (of 19):                                               206.0 sec
IBatch  5 (of 19):                                               207.0 sec
IBatch  6 (of 19):                                               181.1 sec
IBatch  7 (of 19):                                               178.7 sec
IBatch  8 (of 19):                                               177.7 sec
IBatch  9 (of 19):                                               181.7 sec
IBatch 10 (of 19):                                               187.3 sec
IBatch 11 (of 19):                                               200.6 sec
IBatch 12 (of 19):                                               220.6 sec
IBatch 13 (of 19):                                               217.1 sec
IBatch 14 (of 19):                                               201.4 sec
IBatch 15 (of 19):                                               200.4 sec
IBatch 16 (of 19):                                               178.3 sec
IBatch 17 (of 19):                                               180.3 sec
IBatch 18 (of 19):                                               179.8 sec
IBatch 19 (of 19):                                               180.6 sec
                                                 ... done   (   3727.0 sec)

Exchange-correlation integral derivatives        ... 
IBatch  1 (of  4):                                               333.7 sec
