
                                 *****************
                                 * O   R   C   A *
                                 *****************

                                            #,                                       
                                            ###                                      
                                            ####                                     
                                            #####                                    
                                            ######                                   
                                           ########,                                 
                                     ,,################,,,,,                         
                               ,,#################################,,                 
                          ,,##########################################,,             
                       ,#########################################, ''#####,          
                    ,#############################################,,   '####,        
                  ,##################################################,,,,####,       
                ,###########''''           ''''###############################       
              ,#####''   ,,,,##########,,,,          '''####'''          '####       
            ,##' ,,,,###########################,,,                        '##       
           ' ,,###''''                  '''############,,,                           
         ,,##''                                '''############,,,,        ,,,,,,###''
      ,#''                                            '''#######################'''  
     '                                                          ''''####''''         
             ,#######,   #######,   ,#######,      ##                                
            ,#'     '#,  ##    ##  ,#'     '#,    #''#        ######   ,####,        
            ##       ##  ##   ,#'  ##            #'  '#       #        #'  '#        
            ##       ##  #######   ##           ,######,      #####,   #    #        
            '#,     ,#'  ##    ##  '#,     ,#' ,#      #,         ##   #,  ,#        
             '#######'   ##     ##  '#######'  #'      '#     #####' # '####'        



                  #######################################################
                  #                        -***-                        #
                  #          Department of theory and spectroscopy      #
                  #    Directorship and core code : Frank Neese         #
                  #        Max Planck Institute fuer Kohlenforschung    #
                  #                Kaiser Wilhelm Platz 1               #
                  #                 D-45470 Muelheim/Ruhr               #
                  #                      Germany                        #
                  #                                                     #
                  #                  All rights reserved                #
                  #                        -***-                        #
                  #######################################################


                         Program Version 5.0.1 -  RELEASE  -


 With contributions from (in alphabetic order):
   Daniel Aravena         : Magnetic Suceptibility
   Michael Atanasov       : Ab Initio Ligand Field Theory (pilot matlab implementation)
   Alexander A. Auer      : GIAO ZORA, VPT2 properties, NMR spectrum
   Ute Becker             : Parallelization
   Giovanni Bistoni       : ED, misc. LED, open-shell LED, HFLD
   Martin Brehm           : Molecular dynamics
   Dmytro Bykov           : SCF Hessian
   Vijay G. Chilkuri      : MRCI spin determinant printing, contributions to CSF-ICE
   Dipayan Datta          : RHF DLPNO-CCSD density
   Achintya Kumar Dutta   : EOM-CC, STEOM-CC
   Dmitry Ganyushin       : Spin-Orbit,Spin-Spin,Magnetic field MRCI
   Miquel Garcia          : C-PCM and meta-GGA Hessian, CC/C-PCM, Gaussian charge scheme
   Yang Guo               : DLPNO-NEVPT2, F12-NEVPT2, CIM, IAO-localization
   Andreas Hansen         : Spin unrestricted coupled pair/coupled cluster methods
   Benjamin Helmich-Paris : MC-RPA, TRAH-SCF, COSX integrals
   Lee Huntington         : MR-EOM, pCC
   Robert Izsak           : Overlap fitted RIJCOSX, COSX-SCS-MP3, EOM
   Marcus Kettner         : VPT2
   Christian Kollmar      : KDIIS, OOCD, Brueckner-CCSD(T), CCSD density, CASPT2, CASPT2-K
   Simone Kossmann        : Meta GGA functionals, TD-DFT gradient, OOMP2, MP2 Hessian
   Martin Krupicka        : Initial AUTO-CI
   Lucas Lang             : DCDCAS
   Marvin Lechner         : AUTO-CI (C++ implementation), FIC-MRCC
   Dagmar Lenk            : GEPOL surface, SMD
   Dimitrios Liakos       : Extrapolation schemes; Compound Job, initial MDCI parallelization
   Dimitrios Manganas     : Further ROCIS development; embedding schemes
   Dimitrios Pantazis     : SARC Basis sets
   Anastasios Papadopoulos: AUTO-CI, single reference methods and gradients
   Taras Petrenko         : DFT Hessian,TD-DFT gradient, ASA, ECA, R-Raman, ABS, FL, XAS/XES, NRVS
   Peter Pinski           : DLPNO-MP2, DLPNO-MP2 Gradient
   Christoph Reimann      : Effective Core Potentials
   Marius Retegan         : Local ZFS, SOC
   Christoph Riplinger    : Optimizer, TS searches, QM/MM, DLPNO-CCSD(T), (RO)-DLPNO pert. Triples
   Tobias Risthaus        : Range-separated hybrids, TD-DFT gradient, RPA, STAB
   Michael Roemelt        : Original ROCIS implementation
   Masaaki Saitow         : Open-shell DLPNO-CCSD energy and density
   Barbara Sandhoefer     : DKH picture change effects
   Avijit Sen             : IP-ROCIS
   Kantharuban Sivalingam : CASSCF convergence, NEVPT2, FIC-MRCI
   Bernardo de Souza      : ESD, SOC TD-DFT
   Georgi Stoychev        : AutoAux, RI-MP2 NMR, DLPNO-MP2 response
   Willem Van den Heuvel  : Paramagnetic NMR
   Boris Wezisla          : Elementary symmetry handling
   Frank Wennmohs         : Technical directorship


 We gratefully acknowledge several colleagues who have allowed us to
 interface, adapt or use parts of their codes:
   Stefan Grimme, W. Hujo, H. Kruse, P. Pracht,  : VdW corrections, initial TS optimization,
                  C. Bannwarth, S. Ehlert          DFT functionals, gCP, sTDA/sTD-DF
   Ed Valeev, F. Pavosevic, A. Kumar             : LibInt (2-el integral package), F12 methods
   Garnet Chan, S. Sharma, J. Yang, R. Olivares  : DMRG
   Ulf Ekstrom                                   : XCFun DFT Library
   Mihaly Kallay                                 : mrcc  (arbitrary order and MRCC methods)
   Jiri Pittner, Ondrej Demel                    : Mk-CCSD
   Frank Weinhold                                : gennbo (NPA and NBO analysis)
   Christopher J. Cramer and Donald G. Truhlar   : smd solvation model
   Lars Goerigk                                  : TD-DFT with DH, B97 family of functionals
   V. Asgeirsson, H. Jonsson                     : NEB implementation
   FAccTs GmbH                                   : IRC, NEB, NEB-TS, DLPNO-Multilevel, CI-OPT
                                                   MM, QMMM, 2- and 3-layer-ONIOM, Crystal-QMMM,
                                                   LR-CPCM, SF, NACMEs, symmetry and pop. for TD-DFT,
                                                   nearIR, NL-DFT gradient (VV10), updates on ESD,
                                                   ML-optimized integration grids
   S Lehtola, MJT Oliveira, MAL Marques          : LibXC Library
   Liviu Ungur et al                             : ANISO software


 Your calculation uses the libint2 library for the computation of 2-el integrals
 For citations please refer to: http://libint.valeyev.net

 Your ORCA version has been built with support for libXC version: 5.1.0
 For citations please refer to: https://tddft.org/programs/libxc/

 This ORCA versions uses:
   CBLAS   interface :  Fast vector & matrix operations
   LAPACKE interface :  Fast linear algebra routines
   SCALAPACK package :  Parallel linear algebra routines
   Shared memory     :  Shared parallel matrices
   BLAS/LAPACK       :  OpenBLAS 0.3.15  USE64BITINT DYNAMIC_ARCH NO_AFFINITY Sandybridge SINGLE_THREADED
        Core in use  :  Sandybridge
   Copyright (c) 2011-2014, The OpenBLAS Project


Your calculation utilizes the geometrical counterpoise correction gCP
Please cite in your paper:
H.Kruse, S. Grimme J.Chem.Phys., 136, (2012), 154101 
   

Your calculation utilizes the atom-pairwise dispersion correction
based on tight binding partial charges (D4)
Cite in your paper:
E.Caldeweyher, C.Bannwarth, S.Grimme, J.Chem.Phys., (2017), 147, 034112.
E.Caldeweyher, S.Ehlert, A.Hansen, H.Neugebauer, S.Grimme, J.Chem.Phys., (2018), in progress.
   

================================================================================

----- Orbital basis set information -----
Your calculation utilizes the basis: def2-mTZVPP
   Stefan Grimme, Andreas Hansen, Sebastian Ehlert, and Jan-Michael Mewes 
   J. Chem. Phys. 154, 000000 (2021). DOI: 10.1063/5.0040021

----- AuxJ basis set information -----
Your calculation utilizes the basis: def2-mTZVPP/J
   Stefan Grimme, Andreas Hansen, Sebastian Ehlert, and Jan-Michael Mewes 
   J. Chem. Phys. 154, 000000 (2021). DOI: 10.1063/5.0040021

----- AuxC basis set information -----
Your calculation utilizes the AutoAux generation procedure.
  G. L. Stoychev, A. A. Auer, F. Neese, J. Chem. Theory Comput. 13, 554 (2017)

----- AuxJK basis set information -----
Your calculation utilizes the AutoAux generation procedure.
  G. L. Stoychev, A. A. Auer, F. Neese, J. Chem. Theory Comput. 13, 554 (2017)

================================================================================
                                        WARNINGS
                       Please study these warnings very carefully!
================================================================================

Using LibXC functional ID 497 : Re-regularized SCAN exchange by Furness et al
[ 1]  J. W. Furness, A. D. Kaplan, J. Ning, J. P. Perdew, and J. Sun, J. Phys. Chem. Lett. 11, 8208 (2020)
[ 2]  J. W. Furness, A. D. Kaplan, J. Ning, J. P. Perdew, and J. Sun, J. Phys. Chem. Lett. 11, 9248 (2020)
Using LibXC functional ID 498 : Re-regularized SCAN correlation by Furness et al
[ 1]  J. W. Furness, A. D. Kaplan, J. Ning, J. P. Perdew, and J. Sun, J. Phys. Chem. Lett. 11, 8208 (2020)
[ 2]  J. W. Furness, A. D. Kaplan, J. Ning, J. P. Perdew, and J. Sun, J. Phys. Chem. Lett. 11, 9248 (2020)
Using LibXC functional ID 497 : Re-regularized SCAN exchange by Furness et al
[ 1]  J. W. Furness, A. D. Kaplan, J. Ning, J. P. Perdew, and J. Sun, J. Phys. Chem. Lett. 11, 8208 (2020)
[ 2]  J. W. Furness, A. D. Kaplan, J. Ning, J. P. Perdew, and J. Sun, J. Phys. Chem. Lett. 11, 9248 (2020)
Using LibXC functional ID 498 : Re-regularized SCAN correlation by Furness et al
[ 1]  J. W. Furness, A. D. Kaplan, J. Ning, J. P. Perdew, and J. Sun, J. Phys. Chem. Lett. 11, 8208 (2020)
[ 2]  J. W. Furness, A. D. Kaplan, J. Ning, J. P. Perdew, and J. Sun, J. Phys. Chem. Lett. 11, 9248 (2020)

WARNING: Geometry Optimization
  ===> : Switching off AutoStart
         For restart on a previous wavefunction, please use MOREAD

WARNING: Broken symmetry calculations need fully converged wavefunctions
  ===> : Setting SCFConvForced true
         You can overwrite this default with %scf ConvForced false 


INFO   : the flag for use of the SHARK integral package has been found!

================================================================================
                                       INPUT FILE
================================================================================
NAME = oby_singlet_opt_uks_r2scan_3c_brsym.inp
|  1> !UKS R2SCAN-3C OPT AUTOAUX UNO
|  2> %MaxCore 3000
|  3> %pal
|  4>  nprocs 12
|  5> end
|  6> %scf
|  7>    Brokensym 1,1
|  8> end
|  9> * XYZ 0  1 
| 10>   C   -4.02806654574961     -1.36979578398867     -0.06121369403318
| 11>   C   -2.88628539188451      2.01486041780874     -1.35170452330888
| 12>   C   -3.11940902874962      3.27988248175110     -0.80583063278946
| 13>   H   -3.94121626033515      3.41336414720622     -0.10703856533809
| 14>   C   -2.31439095411316      4.36679664447176     -1.13391724922401
| 15>   H   -2.54073125450509      5.32715897871357     -0.68315582081971
| 16>   C   -1.24075348542796      4.23608921678027     -2.01841099605952
| 17>   H   -5.99510146483768     -7.94696486776864      1.76593859424572
| 18>   C   -1.00169404347741      2.96021277781522     -2.54726634442492
| 19>   H   -0.17810501291361      2.80671463873989     -3.23914750230728
| 20>   C   -1.80160802910486      1.87412511739034     -2.22530696318110
| 21>   H   -1.59532834627330      0.90478554086152     -2.66880142365569
| 22>   C   -6.56266637672874     -4.55335281431352      1.41432056308837
| 23>   C   -5.41621597099795     -1.30366597654354     -0.15423481299153
| 24>   C   -5.99506869451536     -0.14497000474879     -0.73940320305980
| 25>   C   -7.41026732685728     -0.05262122344422     -0.92549768239147
| 26>   C   -5.16456975026246      0.93185357217952     -1.18635625352310
| 27>   C   -5.77098062215667      2.03090793365130     -1.84715519376734
| 28>   C   -3.75386872877725      0.86889565824557     -1.00366896675779
| 29>   H   -3.53675172672473     -2.24112334905029      0.35216934599913
| 30>   C   -3.19906781603871     -0.31145932709491     -0.47189432134088
| 31>   C   -1.80636629767609     -0.46029424688275     -0.30041311713800
| 32>   H   -6.20695923351140     -6.79059627940893      4.02874295299508
| 33>   C   -7.95685336539491     -4.43143551474170      1.22451528780695
| 34>   C   -8.49875005562340     -3.32746034001719      0.61637067390053
| 35>   H   -9.57310356637574     -3.24869127596918      0.48349244712297
| 36>   C   -7.68181153748622     -2.27187214537655      0.15168850015105
| 37>   H   -7.47638577554758     -7.15725697503517      1.20586074210656
| 38>   C   -6.27622232556745     -2.37567023470585      0.32554767776849
| 39>   C   0.73110241958920     -0.67347163461482     -0.02874164326461
| 40>   C   -5.75967175124949     -3.52121571204961      0.95938226867001
| 41>   H   -4.69068219878434     -3.59569437229031      1.10368184751332
| 42>   C   -8.24784172768258     -1.11571750816213     -0.47151709833202
| 43>   C   -7.95207197113288      1.08152024714610     -1.55217044121438
| 44>   C   -6.39100677201821     -7.04434668373030      1.28638026221542
| 45>   C   -9.64112978606795     -1.02857979912104     -0.64318618011991
| 46>   C   -7.14201044945072      2.11205155877863     -2.02807356521870
| 47>   H   -5.13705216011097      2.81762364414142     -2.24129229772411
| 48>   H   -9.02917150395293      1.13528294480077     -1.68498819359642
| 49>   C   -7.76046913033900      3.28690960058828     -2.73533268904610
| 50>   H   -0.46377210884925      3.30208512037830      5.18489104350691
| 51>   C   -0.49431569592401      4.25278976975635      4.64205573435101
| 52>   H   -1.36925849147147      4.80742908938172      4.99739040532485
| 53>   H   -1.57339181427114      5.96828782737480      2.85122555054903
| 54>   C   -0.71665159458641      5.41488945389434      2.44912722963032
| 55>   C   -1.88457091389297      3.22353608077405      2.84357224523960
| 56>   H   -0.85805660436168      5.31675268995997      1.36867522096215
| 57>   H   0.18879301244305      6.00710718003573      2.62162287373901
| 58>   H   0.39771760576045      4.83258184537803      4.90420938436837
| 59>   H   -5.98201951134986     -6.98483311076925      0.27217132775824
| 60>   H   8.03387465212551      4.46108395565459      1.55085036909664
| 61>   H   8.02287995869396      3.74281032331084      3.16169360234388
| 62>   H   6.57176603323356      4.55561244141411      2.54873916256888
| 63>   C   -0.35212572286879      5.41220059474826     -2.42976965101560
| 64>   C   1.10449931836811      5.12947566703843     -2.01660626649924
| 65>   H   1.48818276587067      4.21516173718084     -2.47989042303259
| 66>   H   1.75088977020105      5.95874464573301     -2.32650366147777
| 67>   C   -0.42560301951033      5.58573036928460     -3.95909267381967
| 68>   H   1.18879975783602      5.01665087845800     -0.93058037321274
| 69>   H   0.19043997010504      6.43657837734024     -4.27200006933526
| 70>   C   -0.78843684513999      6.72901854842609     -1.77643836530352
| 71>   H   -0.06234857002257      4.69766747646760     -4.48463485178360
| 72>   H   -1.45666568483079      5.76952212475218     -4.27998062719217
| 73>   H   -6.35096491132121     -5.02172253776143      4.11574428623608
| 74>   H   -0.12646769175346      7.53566284627772     -2.10817395017714
| 75>   H   -1.81174018722320      7.00286982757899     -2.05575590673787
| 76>   H   -0.72620079427273      6.68099955401998     -0.68367335949311
| 77>   C   -6.00305632587749     -5.79665621147796      2.10391915996795
| 78>   C   -4.47582600467534     -5.76248125953026      2.23148977108861
| 79>   H   -3.98666948163191     -5.72075305869410      1.25205415271678
| 80>   H   -4.13568092881734     -4.90930242519746      2.82869753155664
| 81>   C   -6.60337461787874     -5.90487433027093      3.51924371244121
| 82>   H   -4.13334353901473     -6.67365690334683      2.73279934074675
| 83>   H   -7.69352758376318     -5.99372560241704      3.49272841183994
| 84>   H   -11.89497390119478     -0.89064404091904     -0.91836210280125
| 85>   C   -10.84139747404393     -0.95442798903839     -0.78995572481244
| 86>   C   10.98436830106082     -0.02837965074280      0.54454106194868
| 87>   H   12.02237170124127      0.16894205355017      0.66344803604665
| 88>   H   7.01632263493383     -7.62869762276784     -1.78656444286587
| 89>   C   4.26944181469991     -1.25295534292253     -0.23547954571692
| 90>   C   2.70764171599178      1.77288948120150      1.42251159380029
| 91>   C   1.69829128520182      2.31297871134501      0.61847819869996
| 92>   H   1.71310444532763      2.13720755576888     -0.45323209589322
| 93>   C   0.66065382022745      3.04234231150956      1.17534129471902
| 94>   H   -0.12197141163254      3.40925802137131      0.51599102730820
| 95>   C   0.58994231193003      3.27895682559434      2.55455379140817
| 96>   H   4.75510418286335     -5.63639516938508     -1.35693968082080
| 97>   C   1.61993757303871      2.77003788793093      3.34783523850903
| 98>   H   1.61445632127324      2.92567067329637      4.42111287180552
| 99>   C   2.65862483601533      2.02710532910615      2.79411518561803
|100>   H   3.42532418570225      1.60795881255058      3.44086070634089
|101>   C   7.17748983434670     -4.18119260344386     -1.54844945304919
|102>   C   5.64024455814905     -1.04678302566389     -0.08147459163385
|103>   C   6.07474507212773      0.15850297740034      0.53451171516240
|104>   C   7.46827337992324      0.44140359603978      0.68812830733646
|105>   C   5.12119428037300      1.12288139112286      0.99137134754306
|106>   C   5.58613522792414      2.34382314225258      1.54310685092362
|107>   C   3.73187174972198      0.86476625513545      0.86188212257914
|108>   H   3.88848193246504     -2.15133199656695     -0.70420126262974
|109>   C   3.32235275325363     -0.32371887420029      0.22285295564713
|110>   C   1.94457552016361     -0.58747229871256      0.06516533424020
|111>   H   8.38772634853755     -6.64963451022933     -1.24428554817161
|112>   C   8.54611131009578     -3.88499854004664     -1.36457165311181
|113>   C   8.94795469514725     -2.70742068571892     -0.78653668424525
|114>   H   10.00440482723811     -2.49669561997181     -0.65360413017870
|115>   C   8.00815161444898     -1.74502956820123     -0.35261728892685
|116>   H   4.82294924480675     -4.86380963690255     -2.95858151915867
|117>   C   6.62562169588155     -2.02310556326500     -0.52305047186872
|118>   H   -8.62175329226337     -5.21922931439907      1.56636889762139
|119>   C   6.25431296025126     -3.24167332149364     -1.12191502074328
|120>   H   5.20222425298193     -3.45433579400147     -1.25199705175252
|121>   C   8.42938286613119     -0.51883225051395      0.25151235480724
|122>   C   7.86595932825302      1.65684688417793      1.27040585274068
|123>   C   5.25370951133153     -5.65282865374625     -2.33231484198393
|124>   C   9.80205649202392     -0.25498207682123      0.40877170260323
|125>   C   6.93747409090300      2.61220284113139      1.68492489369515
|126>   H   4.85537445102941      3.08709479767824      1.84445351433653
|127>   H   8.92885794393343      1.85422357723143      1.38035044956486
|128>   C   7.41163540254415      3.91490059503031      2.26865914730124
|129>   C   7.39345606711543     -5.58977789309278     -3.60527893839661
|130>   C   6.77344970609521     -5.50458865886926     -2.19692768030781
|131>   H   7.04443950810966     -4.76265914814776     -4.23261353714302
|132>   C   7.29754697206215     -6.67012983902094     -1.33530790325864
|133>   H   8.48630983954405     -5.55011697597439     -3.57211326427548
|134>   H   9.30279711833366     -4.59624281767801     -1.68248454234074
|135>   H   -2.76493101557189      3.74939044532893      3.23253530828192
|136>   H   7.10662572544594     -6.53239980396231     -4.08541029763067
|137>   C   -0.60426044626304     -0.61795219040738     -0.16135481473338
|138>   H   5.02263246702310     -6.61331419727552     -2.80452235204924
|139>   H   -2.02680971984394      3.06660509399818      1.77028234895292
|140>   H   6.87389993298916     -6.62595187946699     -0.32634983742080
|141>   H   -1.83056500126432      2.23938167918569      3.32120739628070
|142>   C   -0.60713719101850      4.03709311634999      3.12868001258071
|143>   H   -7.00053875019876      4.00334578710980     -3.05709792929443
|144>   H   -8.32001270591100      2.96098462074929     -3.61913794027078
|145>   H   -8.46614362762167      3.80884164295701     -2.07924354072503
|146> *
|147> 
|148> 
|149>                          ****END OF INPUT****
================================================================================

                       *****************************
                       * Geometry Optimization Run *
                       *****************************

Geometry optimization settings:
Update method            Update   .... BFGS
Choice of coordinates    CoordSys .... Z-matrix Internals
Initial Hessian          InHess   .... Almoef's Model

Convergence Tolerances:
Energy Change            TolE     ....  5.0000e-06 Eh
Max. Gradient            TolMAXG  ....  3.0000e-04 Eh/bohr
RMS Gradient             TolRMSG  ....  1.0000e-04 Eh/bohr
Max. Displacement        TolMAXD  ....  4.0000e-03 bohr
RMS Displacement         TolRMSD  ....  2.0000e-03 bohr
Strict Convergence                ....  False
------------------------------------------------------------------------------
                        ORCA OPTIMIZATION COORDINATE SETUP
------------------------------------------------------------------------------

The optimization will be done in new redundant internal coordinates
Making redundant internal coordinates   ...  (new redundants) done
Evaluating the initial hessian          ...  (Almloef) done
Evaluating the coordinates              ...  done
Calculating the B-matrix                .... done
Calculating the G-matrix                .... done
Diagonalizing the G-matrix              .... done
Small eigenvalue found = 2.577e-04
Small eigenvalue found = 4.589e-04
Small eigenvalue found = 8.613e-04
Small eigenvalue found = 1.129e-03
Small eigenvalue found = 1.637e-03
Small eigenvalue found = 2.778e-03
Small eigenvalue found = 4.009e-03
Small eigenvalue found = 5.430e-03
Small eigenvalue found = 5.796e-03
Small eigenvalue found = 7.204e-03
Small eigenvalue found = 9.030e-03
Small eigenvalue found = 1.105e-02
Small eigenvalue found = 1.321e-02
Small eigenvalue found = 1.332e-02
Small eigenvalue found = 1.363e-02
Small eigenvalue found = 1.582e-02
Small eigenvalue found = 1.729e-02
Small eigenvalue found = 1.759e-02
Small eigenvalue found = 1.927e-02
Small eigenvalue found = 2.029e-02
Small eigenvalue found = 2.228e-02
Small eigenvalue found = 2.531e-02
Small eigenvalue found = 2.806e-02
Small eigenvalue found = 2.968e-02
The first mode is                       ....  370
The number of degrees of freedom        ....  402

    -----------------------------------------------------------------
                    Redundant Internal Coordinates


    -----------------------------------------------------------------
         Definition                    Initial Value    Approx d2E/dq
    -----------------------------------------------------------------
      1. B(C   2,C   1)                  1.3974         0.608137   
      2. B(H   3,C   2)                  1.0870         0.364136   
      3. B(C   4,C   2)                  1.3918         0.620703   
      4. B(H   5,C   4)                  1.0848         0.367094   
      5. B(C   6,C   4)                  1.3972         0.608533   
      6. B(C   8,C   6)                  1.4017         0.598562   
      7. B(H   9,C   8)                  1.0865         0.364712   
      8. B(C  10,C   1)                  1.3998         0.602645   
      9. B(C  10,C   8)                  1.3868         0.632275   
     10. B(H  11,C  10)                  1.0858         0.365763   
     11. B(C  13,C   0)                  1.3928         0.618327   
     12. B(C  14,C  13)                  1.4213         0.556949   
     13. B(C  15,C  14)                  1.4304         0.538688   
     14. B(C  16,C  14)                  1.4314         0.536550   
     15. B(C  17,C  16)                  1.4186         0.562567   
     16. B(C  18,C  16)                  1.4239         0.551691   
     17. B(C  18,C   1)                  1.4789         0.450762   
     18. B(H  19,C   0)                  1.0824         0.370360   
     19. B(C  20,C  18)                  1.4085         0.583780   
     20. B(C  20,C   0)                  1.4057         0.589795   
     21. B(C  21,C  20)                  1.4111         0.578217   
     22. B(C  23,C  12)                  1.4123         0.575611   
     23. B(C  24,C  23)                  1.3720         0.667625   
     24. B(H  25,C  24)                  1.0854         0.366235   
     25. B(C  26,C  24)                  1.4134         0.573417   
     26. B(C  28,C  13)                  1.4557         0.490857   
     27. B(C  28,C  26)                  1.4201         0.559393   
     28. B(C  30,C  28)                  1.4074         0.586055   
     29. B(C  30,C  12)                  1.3846         0.637349   
     30. B(H  31,C  30)                  1.0813         0.371859   
     31. B(C  32,C  26)                  1.4302         0.539019   
     32. B(C  32,C  15)                  1.4275         0.544357   
     33. B(C  33,C  15)                  1.4045         0.592442   
     34. B(C  34,H  27)                  1.0942         0.354583   
     35. B(C  34,H   7)                  1.0961         0.352119   
     36. B(C  35,C  32)                  1.4065         0.587994   
     37. B(C  36,C  33)                  1.3945         0.614514   
     38. B(C  36,C  17)                  1.3853         0.635693   
     39. B(H  37,C  17)                  1.0845         0.367456   
     40. B(H  38,C  33)                  1.0866         0.364641   
     41. B(C  39,C  36)                  1.5043         0.410523   
     42. B(C  41,H  40)                  1.0952         0.353299   
     43. B(H  42,C  41)                  1.0952         0.353316   
     44. B(C  44,H  43)                  1.0963         0.351825   
     45. B(H  46,C  44)                  1.0941         0.354748   
     46. B(H  47,C  44)                  1.0956         0.352787   
     47. B(H  48,C  41)                  1.0957         0.352609   
     48. B(H  49,C  34)                  1.0952         0.353305   
     49. B(C  53,C   6)                  1.5304         0.373031   
     50. B(C  54,C  53)                  1.5403         0.359759   
     51. B(H  55,C  54)                  1.0944         0.354264   
     52. B(H  56,C  54)                  1.0961         0.352056   
     53. B(C  57,C  53)                  1.5409         0.358925   
     54. B(H  58,C  54)                  1.0951         0.353390   
     55. B(H  59,C  57)                  1.0961         0.352163   
     56. B(C  60,C  53)                  1.5334         0.368980   
     57. B(H  61,C  57)                  1.0940         0.354866   
     58. B(H  62,C  57)                  1.0954         0.353064   
     59. B(H  64,C  60)                  1.0950         0.353604   
     60. B(H  65,C  60)                  1.0955         0.352872   
     61. B(H  66,C  60)                  1.0956         0.352782   
     62. B(H  66,H  46)                  2.4679         0.000437   
     63. B(C  67,C  34)                  1.5413         0.358384   
     64. B(C  67,C  12)                  1.5279         0.376452   
     65. B(C  68,C  67)                  1.5329         0.369575   
     66. B(H  69,C  68)                  1.0956         0.352785   
     67. B(H  70,C  68)                  1.0956         0.352809   
     68. B(C  71,C  67)                  1.5412         0.358542   
     69. B(C  71,H  63)                  1.0952         0.353276   
     70. B(C  71,H  22)                  1.0960         0.352237   
     71. B(H  72,C  68)                  1.0949         0.353652   
     72. B(H  73,C  71)                  1.0941         0.354731   
     73. B(C  75,H  74)                  1.0633         0.397230   
     74. B(C  75,C  35)                  1.2115         1.203807   
     75. B(H  77,C  76)                  1.0633         0.397267   
     76. B(C  81,C  80)                  1.3989         0.604673   
     77. B(H  82,C  81)                  1.0861         0.365256   
     78. B(H  82,H  55)                  2.9113         0.000086   
     79. B(C  83,C  81)                  1.3852         0.635928   
     80. B(H  84,C  83)                  1.0871         0.363904   
     81. B(C  85,C  83)                  1.4011         0.599727   
     82. B(C  87,C  85)                  1.3961         0.610880   
     83. B(H  88,C  87)                  1.0845         0.367427   
     84. B(C  89,C  87)                  1.3919         0.620418   
     85. B(C  89,C  80)                  1.3958         0.611571   
     86. B(H  90,C  89)                  1.0871         0.363954   
     87. B(C  92,C  79)                  1.3947         0.613991   
     88. B(C  93,C  92)                  1.4216         0.556319   
     89. B(C  94,C  93)                  1.4302         0.538961   
     90. B(C  95,C  93)                  1.4311         0.537266   
     91. B(C  96,C  95)                  1.4182         0.563317   
     92. B(C  97,C  95)                  1.4190         0.561622   
     93. B(C  97,C  80)                  1.4792         0.450217   
     94. B(H  98,C  79)                  1.0825         0.370094   
     95. B(C  99,C  97)                  1.4102         0.580188   
     96. B(C  99,C  79)                  1.4038         0.594010   
     97. B(C 100,C  99)                  1.4116         0.577069   
     98. B(C 100,C  29)                  1.2201         1.166128   
     99. B(C 102,C  91)                  1.4123         0.575596   
    100. B(C 103,C 102)                  1.3720         0.667590   
    101. B(H 104,C 103)                  1.0854         0.366194   
    102. B(C 105,C 103)                  1.4134         0.573321   
    103. B(C 107,C 105)                  1.4205         0.558612   
    104. B(C 107,C  92)                  1.4557         0.490753   
    105. B(H 108,C  23)                  1.0861         0.365320   
    106. B(C 109,C 107)                  1.4076         0.585618   
    107. B(C 109,C  91)                  1.3845         0.637512   
    108. B(H 110,C 109)                  1.0812         0.371904   
    109. B(C 111,C 105)                  1.4304         0.538673   
    110. B(C 111,C  94)                  1.4270         0.545328   
    111. B(C 112,C  94)                  1.4052         0.590929   
    112. B(C 113,H 106)                  1.0956         0.352782   
    113. B(C 113,H  86)                  1.0956         0.352830   
    114. B(C 114,C 111)                  1.4066         0.587790   
    115. B(C 114,C  76)                  1.2115         1.203878   
    116. B(C 115,C 112)                  1.3952         0.612948   
    117. B(C 115,C  96)                  1.3850         0.636352   
    118. B(H 116,C  96)                  1.0850         0.366745   
    119. B(H 117,C 112)                  1.0866         0.364565   
    120. B(C 118,C 115)                  1.5042         0.410725   
    121. B(C 118,H  52)                  1.0929         0.356340   
    122. B(C 118,H  51)                  1.0958         0.352527   
    123. B(C 118,H  50)                  1.0958         0.352526   
    124. B(C 120,C 119)                  1.5411         0.358593   
    125. B(C 120,C 113)                  1.5329         0.369557   
    126. B(C 120,C  91)                  1.5281         0.376164   
    127. B(H 121,C 119)                  1.0952         0.353272   
    128. B(C 122,H 101)                  1.0942         0.354633   
    129. B(C 122,H  78)                  1.0962         0.352040   
    130. B(C 122,C 120)                  1.5413         0.358407   
    131. B(H 123,C 119)                  1.0941         0.354748   
    132. B(H 124,C 102)                  1.0861         0.365360   
    133. B(H 125,C  45)                  1.0967         0.351287   
    134. B(H 126,C 119)                  1.0961         0.352180   
    135. B(C 127,C  29)                  1.3431         0.742330   
    136. B(C 127,C  21)                  1.2203         1.165214   
    137. B(H 128,C 113)                  1.0949         0.353615   
    138. B(H 129,H   3)                  2.7036         0.000184   
    139. B(H 129,C  45)                  1.0940         0.354862   
    140. B(H 130,C 122)                  1.0952         0.353309   
    141. B(H 131,C  45)                  1.0953         0.353198   
    142. B(C 132,C  85)                  1.5289         0.375152   
    143. B(C 132,C  45)                  1.5411         0.358644   
    144. B(C 132,C  44)                  1.5402         0.359882   
    145. B(C 132,C  41)                  1.5328         0.369715   
    146. B(H 133,C  39)                  1.0928         0.356357   
    147. B(H 134,C  39)                  1.0956         0.352715   
    148. B(H 135,C  39)                  1.0958         0.352470   
    149. A(C  13,C   0,H  19)          121.0733         0.354430   
    150. A(C  13,C   0,C  20)          122.1747         0.429979   
    151. A(H  19,C   0,C  20)          116.7425         0.351607   
    152. A(C   2,C   1,C  18)          120.7771         0.408645   
    153. A(C  10,C   1,C  18)          121.5700         0.407990   
    154. A(C   2,C   1,C  10)          117.6509         0.430360   
    155. A(C   1,C   2,C   4)          121.2253         0.432649   
    156. A(H   3,C   2,C   4)          119.5348         0.353643   
    157. A(C   1,C   2,H   3)          119.2386         0.352421   
    158. A(C   2,C   4,H   5)          118.2127         0.354129   
    159. A(C   2,C   4,C   6)          121.3750         0.432699   
    160. A(H   5,C   4,C   6)          120.4123         0.352943   
    161. A(C   8,C   6,C  53)          119.9392         0.394142   
    162. A(C   4,C   6,C  53)          122.9876         0.395286   
    163. A(C   4,C   6,C   8)          117.0692         0.429885   
    164. A(C   6,C   8,C  10)          121.7974         0.432851   
    165. A(C   6,C   8,H   9)          119.8763         0.351571   
    166. A(H   9,C   8,C  10)          118.3218         0.354847   
    167. A(C   1,C  10,H  11)          119.4648         0.352146   
    168. A(C   8,C  10,H  11)          119.6559         0.355020   
    169. A(C   1,C  10,C   8)          120.8712         0.433381   
    170. A(C  23,C  12,C  30)          117.6455         0.430439   
    171. A(C  30,C  12,C  67)          122.8523         0.399150   
    172. A(C  23,C  12,C  67)          119.5021         0.392080   
    173. A(C   0,C  13,C  14)          118.1711         0.425585   
    174. A(C   0,C  13,C  28)          122.1293         0.416098   
    175. A(C  14,C  13,C  28)          119.6996         0.408449   
    176. A(C  13,C  14,C  16)          120.3670         0.414950   
    177. A(C  15,C  14,C  16)          119.0018         0.412499   
    178. A(C  13,C  14,C  15)          120.6075         0.415243   
    179. A(C  14,C  15,C  33)          119.4634         0.419837   
    180. A(C  14,C  15,C  32)          119.4101         0.413559   
    181. A(C  32,C  15,C  33)          121.1265         0.420622   
    182. A(C  14,C  16,C  17)          118.7023         0.415691   
    183. A(C  17,C  16,C  18)          121.1682         0.417755   
    184. A(C  14,C  16,C  18)          120.0987         0.414250   
    185. A(C  36,C  17,H  37)          119.2462         0.355624   
    186. A(C  16,C  17,C  36)          121.9582         0.428472   
    187. A(C  16,C  17,H  37)          118.7799         0.348350   
    188. A(C   1,C  18,C  20)          120.4744         0.405701   
    189. A(C   1,C  18,C  16)          121.1157         0.401675   
    190. A(C  16,C  18,C  20)          118.4082         0.420521   
    191. A(C  18,C  20,C  21)          121.5364         0.424063   
    192. A(C   0,C  20,C  18)          120.5941         0.425570   
    193. A(C   0,C  20,C  21)          117.8490         0.424842   
    194. L(C  20,C  21,C 127,C   0, 1) 178.9100         0.480799   
    195. L(C  20,C  21,C 127,C   0, 2) 178.2289         0.480799   
    196. A(C  12,C  23,H 108)          119.9619         0.349355   
    197. A(C  12,C  23,C  24)          121.2616         0.434044   
    198. A(C  24,C  23,H 108)          118.7761         0.358242   
    199. A(C  23,C  24,H  25)          120.2401         0.358395   
    200. A(H  25,C  24,C  26)          118.5338         0.349278   
    201. A(C  23,C  24,C  26)          121.2261         0.433746   
    202. A(C  28,C  26,C  32)          120.2756         0.415612   
    203. A(C  24,C  26,C  32)          121.2156         0.417447   
    204. A(C  24,C  26,C  28)          118.5069         0.420217   
    205. A(C  26,C  28,C  30)          118.5480         0.421856   
    206. A(C  13,C  28,C  26)          119.3787         0.408766   
    207. A(C  13,C  28,C  30)          122.0732         0.412153   
    208. A(C 100,C  29,C 127)          173.4693         0.503667   
    209. A(C  28,C  30,H  31)          118.6216         0.351469   
    210. A(C  12,C  30,H  31)          118.5664         0.356501   
    211. A(C  12,C  30,C  28)          122.8105         0.431831   
    212. A(C  15,C  32,C  26)          120.5563         0.413604   
    213. A(C  15,C  32,C  35)          119.7529         0.420057   
    214. A(C  26,C  32,C  35)          119.6902         0.419319   
    215. A(C  36,C  33,H  38)          119.8373         0.353127   
    216. A(C  15,C  33,H  38)          118.4829         0.350949   
    217. A(C  15,C  33,C  36)          121.6635         0.429847   
    218. A(H   7,C  34,H  27)          107.7884         0.289118   
    219. A(H  27,C  34,C  67)          111.8537         0.321305   
    220. A(H   7,C  34,C  67)          110.0983         0.320939   
    221. A(H  49,C  34,C  67)          110.6842         0.321115   
    222. A(H  27,C  34,H  49)          107.9321         0.289270   
    223. A(H   7,C  34,H  49)          108.3625         0.288954   
    224. L(C  32,C  35,C  75,C  26, 2) 179.9446         0.485200   
    225. L(C  32,C  35,C  75,C  26, 1) 179.9385         0.485200   
    226. A(C  17,C  36,C  33)          119.1471         0.435326   
    227. A(C  33,C  36,C  39)          119.9187         0.402691   
    228. A(C  17,C  36,C  39)          120.9329         0.405106   
    229. A(H 134,C  39,H 135)          107.2036         0.288924   
    230. A(C  36,C  39,H 135)          110.8079         0.328234   
    231. A(C  36,C  39,H 134)          110.9090         0.328271   
    232. A(H 133,C  39,H 135)          108.1696         0.289389   
    233. A(C  36,C  39,H 133)          111.3791         0.328828   
    234. A(H 133,C  39,H 134)          108.2182         0.289421   
    235. A(H  42,C  41,C 132)          109.4388         0.322758   
    236. A(H  48,C  41,C 132)          111.7524         0.322652   
    237. A(H  40,C  41,C 132)          111.6702         0.322755   
    238. A(H  42,C  41,H  48)          107.7455         0.289019   
    239. A(H  40,C  41,H  48)          108.5446         0.289016   
    240. A(H  40,C  41,H  42)          107.5230         0.289107   
    241. A(H  43,C  44,C 132)          110.2001         0.321114   
    242. A(H  46,C  44,C 132)          111.3876         0.321549   
    243. A(H  47,C  44,C 132)          110.8136         0.321257   
    244. A(H  46,C  44,H  47)          108.1067         0.289225   
    245. A(H  43,C  44,H  47)          108.3751         0.288850   
    246. A(H  43,C  44,H  46)          107.8471         0.289101   
    247. A(H 131,C  45,C 132)          110.6587         0.321137   
    248. A(H 129,C  45,C 132)          111.4078         0.321384   
    249. A(H 125,C  45,C 132)          110.2820         0.320852   
    250. A(H 129,C  45,H 131)          107.7795         0.289292   
    251. A(H 125,C  45,H 131)          108.4059         0.288833   
    252. A(H 125,C  45,H 129)          108.2012         0.289046   
    253. A(C  57,C  53,C  60)          108.2158         0.360118   
    254. A(C  54,C  53,C  60)          108.2061         0.360261   
    255. A(C   6,C  53,C  60)          112.3474         0.362494   
    256. A(C  54,C  53,C  57)          109.3900         0.358570   
    257. A(C   6,C  53,C  57)          109.0039         0.360789   
    258. A(C   6,C  53,C  54)          109.6308         0.360932   
    259. A(H  56,C  54,H  58)          108.2350         0.288957   
    260. A(H  55,C  54,H  58)          107.8625         0.289240   
    261. A(C  53,C  54,H  58)          110.9605         0.321329   
    262. A(H  55,C  54,H  56)          107.7948         0.289069   
    263. A(C  53,C  54,H  56)          110.0580         0.321130   
    264. A(C  53,C  54,H  55)          111.7979         0.321459   
    265. A(H  61,C  57,H  62)          107.9404         0.289275   
    266. A(H  59,C  57,H  62)          108.3710         0.288929   
    267. A(C  53,C  57,H  62)          110.7647         0.321159   
    268. A(H  59,C  57,H  61)          107.8415         0.289159   
    269. A(C  53,C  57,H  61)          111.6869         0.321426   
    270. A(C  53,C  57,H  59)          110.1183         0.321024   
    271. A(H  65,C  60,H  66)          108.5616         0.288984   
    272. A(H  64,C  60,H  66)          107.4656         0.289078   
    273. A(C  53,C  60,H  66)          111.7881         0.322573   
    274. A(H  64,C  60,H  65)          107.6566         0.289089   
    275. A(C  53,C  60,H  65)          111.8282         0.322586   
    276. A(C  53,C  60,H  64)          109.3623         0.322696   
    277. A(C  68,C  67,C  71)          108.2529         0.360151   
    278. A(C  34,C  67,C  71)          109.4037         0.358271   
    279. A(C  12,C  67,C  71)          109.2051         0.361285   
    280. A(C  34,C  67,C  68)          108.2375         0.360124   
    281. A(C  12,C  67,C  68)          112.6012         0.363160   
    282. A(C  12,C  67,C  34)          109.0947         0.361258   
    283. A(H  70,C  68,H  72)          107.5402         0.289087   
    284. A(H  69,C  68,H  72)          107.5388         0.289084   
    285. A(C  67,C  68,H  72)          109.3404         0.322788   
    286. A(H  69,C  68,H  70)          108.6049         0.288976   
    287. A(C  67,C  68,H  70)          111.8418         0.322662   
    288. A(C  67,C  68,H  69)          111.7940         0.322658   
    289. A(C  67,C  71,H  73)          111.8121         0.321350   
    290. A(H  63,C  71,H  73)          107.9583         0.289285   
    291. A(H  22,C  71,H  73)          107.8199         0.289152   
    292. A(H  63,C  71,C  67)          110.7184         0.321134   
    293. A(H  22,C  71,C  67)          110.0455         0.320979   
    294. A(H  22,C  71,H  63)          108.3678         0.288965   
    295. L(C  35,C  75,H  74, 2)       179.9293         0.402562   
    296. L(C  35,C  75,H  74, 1)       179.9772         0.402562   
    297. L(H  77,C  76,C 114, 2)       180.0158         0.402572   
    298. L(H  77,C  76,C 114, 1)       179.9136         0.402572   
    299. A(H  98,C  79,C  99)          116.9549         0.351988   
    300. A(C  92,C  79,C  99)          121.9511         0.429985   
    301. A(C  92,C  79,H  98)          121.0877         0.353964   
    302. A(C  89,C  80,C  97)          120.5679         0.408965   
    303. A(C  81,C  80,C  97)          121.2508         0.408145   
    304. A(C  81,C  80,C  89)          117.9779         0.431055   
    305. A(C  80,C  81,C  83)          120.8450         0.434092   
    306. A(C  80,C  81,H  82)          119.6569         0.352264   
    307. A(H  82,C  81,C  83)          119.4789         0.355284   
    308. A(H  84,C  83,C  85)          120.2437         0.351554   
    309. A(C  81,C  83,C  85)          121.4961         0.433451   
    310. A(C  81,C  83,H  84)          118.2395         0.355061   
    311. A(C  87,C  85,C 132)          123.0273         0.395946   
    312. A(C  83,C  85,C 132)          119.5317         0.394669   
    313. A(C  83,C  85,C  87)          117.4204         0.430332   
    314. A(H  88,C  87,C  89)          118.2979         0.354155   
    315. A(C  85,C  87,C  89)          121.2690         0.432963   
    316. A(C  85,C  87,H  88)          120.4158         0.353227   
    317. A(C  87,C  89,H  90)          119.6973         0.353586   
    318. A(C  80,C  89,H  90)          119.3153         0.352727   
    319. A(C  80,C  89,C  87)          120.9523         0.433051   
    320. A(C 109,C  91,C 120)          122.8277         0.399114   
    321. A(C 102,C  91,C 120)          119.5442         0.392025   
    322. A(C 102,C  91,C 109)          117.6280         0.430456   
    323. A(C  93,C  92,C 107)          119.5493         0.408352   
    324. A(C  79,C  92,C 107)          122.1839         0.415562   
    325. A(C  79,C  92,C  93)          118.2661         0.424963   
    326. A(C  94,C  93,C  95)          118.7921         0.412634   
    327. A(C  92,C  93,C  95)          120.3988         0.414965   
    328. A(C  92,C  93,C  94)          120.8000         0.415197   
    329. A(C 111,C  94,C 112)          121.2122         0.420564   
    330. A(C  93,C  94,C 112)          119.4297         0.419684   
    331. A(C  93,C  94,C 111)          119.3577         0.413727   
    332. A(C  96,C  95,C  97)          120.8691         0.419185   
    333. A(C  93,C  95,C  97)          120.0438         0.415665   
    334. A(C  93,C  95,C  96)          119.0717         0.415888   
    335. A(C 115,C  96,H 116)          119.7321         0.355569   
    336. A(C  95,C  96,H 116)          118.4896         0.348315   
    337. A(C  95,C  96,C 115)          121.7711         0.428654   
    338. A(C  95,C  97,C  99)          118.6190         0.421398   
    339. A(C  80,C  97,C  99)          119.2149         0.405173   
    340. A(C  80,C  97,C  95)          122.1186         0.402854   
    341. A(C  97,C  99,C 100)          119.4414         0.423445   
    342. A(C  79,C  99,C 100)          119.8907         0.425232   
    343. A(C  79,C  99,C  97)          120.6592         0.425643   
    344. A(C  29,C 100,C  99)          172.9574         0.480693   
    345. A(C 103,C 102,H 124)          118.7743         0.358246   
    346. A(C  91,C 102,H 124)          119.9811         0.349360   
    347. A(C  91,C 102,C 103)          121.2445         0.434038   
    348. A(H 104,C 103,C 105)          118.5144         0.349261   
    349. A(C 102,C 103,C 105)          121.2666         0.433729   
    350. A(C 102,C 103,H 104)          120.2190         0.358385   
    351. A(C 107,C 105,C 111)          120.3391         0.415461   
    352. A(C 103,C 105,C 111)          121.1688         0.417387   
    353. A(C 103,C 105,C 107)          118.4914         0.420100   
    354. A(C 105,C 107,C 109)          118.5060         0.421694   
    355. A(C  92,C 107,C 109)          122.0793         0.412083   
    356. A(C  92,C 107,C 105)          119.4144         0.408649   
    357. A(C 107,C 109,H 110)          118.5634         0.351432   
    358. A(C  91,C 109,H 110)          118.5736         0.356524   
    359. A(C  91,C 109,C 107)          122.8628         0.431793   
    360. A(C 105,C 111,C 114)          119.6964         0.419245   
    361. A(C  94,C 111,C 114)          119.7901         0.420164   
    362. A(C  94,C 111,C 105)          120.5124         0.413688   
    363. A(C 115,C 112,H 117)          119.7688         0.352962   
    364. A(C  94,C 112,H 117)          118.4161         0.350785   
    365. A(C  94,C 112,C 115)          121.8068         0.429453   
    366. A(C 120,C 113,H 128)          109.3986         0.322780   
    367. A(H 106,C 113,H 128)          107.5924         0.289079   
    368. A(H  86,C 113,H 128)          107.5215         0.289085   
    369. A(H 106,C 113,C 120)          111.7546         0.322655   
    370. A(H  86,C 113,C 120)          111.7845         0.322662   
    371. A(H  86,C 113,H 106)          108.6131         0.288978   
    372. L(C  76,C 114,C 111,C 105, 2) 179.9465         0.485174   
    373. L(C  76,C 114,C 111,C 105, 1) 179.9790         0.485174   
    374. A(C 112,C 115,C 118)          119.9031         0.402545   
    375. A(C  96,C 115,C 118)          121.0052         0.405215   
    376. A(C  96,C 115,C 112)          119.0907         0.435208   
    377. A(H  52,C 118,C 115)          111.4039         0.328852   
    378. A(H  51,C 118,C 115)          110.8606         0.328269   
    379. A(H  50,C 118,C 115)          110.8830         0.328269   
    380. A(H  51,C 118,H  52)          108.1734         0.289394   
    381. A(H  50,C 118,H  52)          108.1831         0.289394   
    382. A(H  50,C 118,H  51)          107.1805         0.288907   
    383. A(H 123,C 119,H 126)          107.8097         0.289147   
    384. A(H 121,C 119,H 126)          108.3719         0.288958   
    385. A(C 120,C 119,H 126)          110.0334         0.320978   
    386. A(H 121,C 119,H 123)          107.9572         0.289287   
    387. A(C 120,C 119,H 123)          111.8482         0.321360   
    388. A(C 120,C 119,H 121)          110.7012         0.321141   
    389. A(C 119,C 120,C 122)          109.4060         0.358283   
    390. A(C 113,C 120,C 122)          108.2615         0.360125   
    391. A(C  91,C 120,C 122)          109.1332         0.361215   
    392. A(C 113,C 120,C 119)          108.2271         0.360157   
    393. A(C  91,C 120,C 119)          109.2263         0.361247   
    394. A(C  91,C 120,C 113)          112.5415         0.363109   
    395. A(C 120,C 122,H 130)          110.6693         0.321119   
    396. A(H 101,C 122,H 130)          107.9402         0.289277   
    397. A(H  78,C 122,H 130)          108.3784         0.288944   
    398. A(H 101,C 122,C 120)          111.7860         0.321316   
    399. A(H  78,C 122,C 120)          110.1158         0.320930   
    400. A(H  78,C 122,H 101)          107.8331         0.289114   
    401. A(C  21,C 127,C  29)          174.8626         0.503594   
    402. A(C  45,C 132,C  85)          108.5284         0.361090   
    403. A(C  44,C 132,C  85)          109.4870         0.361302   
    404. A(C  41,C 132,C  85)          112.5141         0.362968   
    405. A(C  44,C 132,C  45)          109.3711         0.358543   
    406. A(C  41,C 132,C  45)          108.5391         0.360192   
    407. A(C  41,C 132,C  44)          108.3591         0.360404   
    408. D(C   4,C   2,C   1,C  10)      0.9396         0.025533   
    409. D(H   3,C   2,C   1,C  10)   -178.6402         0.025533   
    410. D(C   4,C   2,C   1,C  18)   -179.5584         0.025533   
    411. D(H   3,C   2,C   1,C  18)      0.8618         0.025533   
    412. D(H   5,C   4,C   2,H   3)     -0.5491         0.026663   
    413. D(C   6,C   4,C   2,H   3)    179.4286         0.026663   
    414. D(H   5,C   4,C   2,C   1)    179.8723         0.026663   
    415. D(C   6,C   4,C   2,C   1)     -0.1500         0.026663   
    416. D(C   8,C   6,C   4,C   2)     -0.7279         0.025568   
    417. D(C  53,C   6,C   4,C   2)    178.5464         0.025568   
    418. D(C   8,C   6,C   4,H   5)    179.2493         0.025568   
    419. D(C  53,C   6,C   4,H   5)     -1.4764         0.025568   
    420. D(C  10,C   8,C   6,C   4)      0.8200         0.024692   
    421. D(H   9,C   8,C   6,C  53)      0.7392         0.024692   
    422. D(C  10,C   8,C   6,C  53)   -178.4776         0.024692   
    423. D(H   9,C   8,C   6,C   4)   -179.9633         0.024692   
    424. D(H  11,C  10,C   8,C   6)    178.9305         0.027731   
    425. D(H  11,C  10,C   1,C  18)      0.6889         0.025049   
    426. D(H  11,C  10,C   1,C   2)   -179.8133         0.025049   
    427. D(H  11,C  10,C   8,H   9)     -0.2980         0.027731   
    428. D(C   1,C  10,C   8,C   6)     -0.0324         0.027731   
    429. D(C   1,C  10,C   8,H   9)   -179.2609         0.027731   
    430. D(C   8,C  10,C   1,C   2)     -0.8484         0.025049   
    431. D(C   8,C  10,C   1,C  18)    179.6538         0.025049   
    432. D(C  28,C  13,C   0,C  20)   -177.2316         0.026447   
    433. D(C  28,C  13,C   0,H  19)      1.6113         0.026447   
    434. D(C  14,C  13,C   0,C  20)      2.7769         0.026447   
    435. D(C  14,C  13,C   0,H  19)   -178.3803         0.026447   
    436. D(C  16,C  14,C  13,C   0)     -1.5303         0.021239   
    437. D(C  15,C  14,C  13,C   0)    176.6809         0.021239   
    438. D(C  15,C  14,C  13,C  28)     -3.3109         0.021239   
    439. D(C  16,C  14,C  13,C  28)    178.4780         0.021239   
    440. D(C  33,C  15,C  14,C  16)      0.6330         0.019825   
    441. D(C  32,C  15,C  14,C  13)      2.3611         0.019825   
    442. D(C  32,C  15,C  14,C  16)   -179.4036         0.019825   
    443. D(C  33,C  15,C  14,C  13)   -177.6022         0.019825   
    444. D(C  17,C  16,C  14,C  15)     -2.4733         0.019663   
    445. D(C  18,C  16,C  14,C  13)     -2.2382         0.019663   
    446. D(C  18,C  16,C  14,C  15)    179.5222         0.019663   
    447. D(C  17,C  16,C  14,C  13)    175.7663         0.019663   
    448. D(C  36,C  17,C  16,C  14)      2.3364         0.021686   
    449. D(H  37,C  17,C  16,C  18)      1.7697         0.021686   
    450. D(C  36,C  17,C  16,C  18)   -179.6813         0.021686   
    451. D(H  37,C  17,C  16,C  14)   -176.2126         0.021686   
    452. D(C  20,C  18,C  16,C  17)   -173.1955         0.020826   
    453. D(C  20,C  18,C  16,C  14)      4.7588         0.020826   
    454. D(C  20,C  18,C   1,C  10)     55.1723         0.013850   
    455. D(C   1,C  18,C  16,C  17)      7.2694         0.020826   
    456. D(C   1,C  18,C  16,C  14)   -174.7763         0.020826   
    457. D(C  16,C  18,C   1,C  10)   -125.3021         0.013850   
    458. D(C  20,C  18,C   1,C   2)   -124.3099         0.013850   
    459. D(C  16,C  18,C   1,C   2)     55.2156         0.013850   
    460. D(C  21,C  20,C  18,C  16)    178.0900         0.023428   
    461. D(C  21,C  20,C   0,H  19)     -0.7116         0.023938   
    462. D(C   0,C  20,C  18,C   1)    175.9434         0.023428   
    463. D(C   0,C  20,C  18,C  16)     -3.5947         0.023428   
    464. D(C  18,C  20,C   0,C  13)     -0.1973         0.023938   
    465. D(C  21,C  20,C  18,C   1)     -2.3718         0.023428   
    466. D(C  21,C  20,C   0,C  13)    178.1786         0.023938   
    467. D(C  18,C  20,C   0,H  19)   -179.0875         0.023938   
    468. D(H 108,C  23,C  12,C  30)    179.9658         0.022748   
    469. D(C  24,C  23,C  12,C  67)    179.6413         0.022748   
    470. D(C  24,C  23,C  12,C  30)     -0.2800         0.022748   
    471. D(H 108,C  23,C  12,C  67)     -0.1128         0.022748   
    472. D(C  26,C  24,C  23,C  12)      0.2490         0.031156   
    473. D(C  26,C  24,C  23,H 108)   -179.9940         0.031156   
    474. D(H  25,C  24,C  23,C  12)   -179.6898         0.031156   
    475. D(H  25,C  24,C  23,H 108)      0.0672         0.031156   
    476. D(C  32,C  26,C  24,H  25)      0.5042         0.022567   
    477. D(C  32,C  26,C  24,C  23)   -179.4356         0.022567   
    478. D(C  28,C  26,C  24,C  23)      0.0750         0.022567   
    479. D(C  28,C  26,C  24,H  25)   -179.9851         0.022567   
    480. D(C  30,C  28,C  26,C  32)    179.1639         0.021433   
    481. D(C  13,C  28,C  26,C  24)    179.5785         0.021433   
    482. D(C  13,C  28,C  26,C  32)     -0.9061         0.021433   
    483. D(C  30,C  28,C  26,C  24)     -0.3515         0.021433   
    484. D(C  30,C  28,C  13,C  14)   -177.5021         0.016406   
    485. D(C  30,C  28,C  13,C   0)      2.5065         0.016406   
    486. D(C  26,C  28,C  13,C  14)      2.5704         0.016406   
    487. D(C  26,C  28,C  13,C   0)   -177.4210         0.016406   
    488. D(C 100,C  29,C  20,C   0)   -168.2377         0.001500   
    489. D(C 100,C  29,C  20,C  18)     10.3614         0.001500   
    490. D(C  28,C  30,C  12,C  67)   -179.9300         0.028208   
    491. D(H  31,C  30,C  28,C  26)   -179.2308         0.023620   
    492. D(H  31,C  30,C  28,C  13)      0.8411         0.023620   
    493. D(C  12,C  30,C  28,C  26)      0.3258         0.023620   
    494. D(C  12,C  30,C  28,C  13)   -179.6022         0.023620   
    495. D(H  31,C  30,C  12,C  67)     -0.3732         0.028208   
    496. D(H  31,C  30,C  12,C  23)    179.5454         0.028208   
    497. D(C  28,C  30,C  12,C  23)     -0.0115         0.028208   
    498. D(C  35,C  32,C  26,C  28)    179.7006         0.019850   
    499. D(C  35,C  32,C  26,C  24)     -0.7974         0.019850   
    500. D(C  15,C  32,C  26,C  28)     -0.0362         0.019850   
    501. D(C  15,C  32,C  26,C  24)    179.4659         0.019850   
    502. D(C  35,C  32,C  15,C  33)     -0.4394         0.020257   
    503. D(C  35,C  32,C  15,C  14)    179.5979         0.020257   
    504. D(C  26,C  32,C  15,C  33)    179.2972         0.020257   
    505. D(C  26,C  32,C  15,C  14)     -0.6655         0.020257   
    506. D(H  38,C  33,C  15,C  32)      0.0621         0.024164   
    507. D(H  38,C  33,C  15,C  14)   -179.9752         0.024164   
    508. D(C  36,C  33,C  15,C  32)   -178.4700         0.024164   
    509. D(C  36,C  33,C  15,C  14)      1.4927         0.024164   
    510. D(C  39,C  36,C  33,H  38)     -0.6149         0.026103   
    511. D(C  39,C  36,C  33,C  15)    177.8977         0.026103   
    512. D(C  17,C  36,C  33,H  38)    179.7913         0.026103   
    513. D(C  17,C  36,C  33,C  15)     -1.6961         0.026103   
    514. D(C  39,C  36,C  17,H  37)     -1.3081         0.028052   
    515. D(C  39,C  36,C  17,C  16)   -179.8505         0.028052   
    516. D(C  33,C  36,C  17,H  37)    178.2815         0.028052   
    517. D(C  33,C  36,C  17,C  16)     -0.2609         0.028052   
    518. D(H 135,C  39,C  36,C  33)     60.1223         0.012481   
    519. D(H 135,C  39,C  36,C  17)   -120.2913         0.012481   
    520. D(H 134,C  39,C  36,C  33)    -58.8179         0.012481   
    521. D(H 134,C  39,C  36,C  17)    120.7686         0.012481   
    522. D(H 133,C  39,C  36,C  33)   -179.4130         0.012481   
    523. D(H 133,C  39,C  36,C  17)      0.1735         0.012481   
    524. D(C  60,C  53,C   6,C   8)    178.5806         0.010409   
    525. D(C  60,C  53,C   6,C   4)     -0.6737         0.010409   
    526. D(C  57,C  53,C   6,C   8)     58.6436         0.010409   
    527. D(C  57,C  53,C   6,C   4)   -120.6107         0.010409   
    528. D(C  54,C  53,C   6,C   8)    -61.0690         0.010409   
    529. D(C  54,C  53,C   6,C   4)    119.6768         0.010409   
    530. D(H  56,C  54,C  53,C  57)     59.3631         0.010385   
    531. D(H  56,C  54,C  53,C   6)    178.8389         0.010385   
    532. D(H  55,C  54,C  53,C  60)   -178.0856         0.010385   
    533. D(H  55,C  54,C  53,C  57)    -60.4001         0.010385   
    534. D(H  55,C  54,C  53,C   6)     59.0757         0.010385   
    535. D(H  58,C  54,C  53,C  60)     61.4524         0.010385   
    536. D(H  58,C  54,C  53,C  57)    179.1379         0.010385   
    537. D(H  58,C  54,C  53,C   6)    -61.3863         0.010385   
    538. D(H  56,C  54,C  53,C  60)    -58.3224         0.010385   
    539. D(H  62,C  57,C  53,C  60)    -63.3823         0.010340   
    540. D(H  62,C  57,C  53,C  54)    178.9383         0.010340   
    541. D(H  62,C  57,C  53,C   6)     59.0767         0.010340   
    542. D(H  61,C  57,C  53,C  60)    176.2661         0.010340   
    543. D(H  61,C  57,C  53,C  54)     58.5867         0.010340   
    544. D(H  61,C  57,C  53,C   6)    -61.2749         0.010340   
    545. D(H  59,C  57,C  53,C  60)     56.4760         0.010340   
    546. D(H  59,C  57,C  53,C  54)    -61.2034         0.010340   
    547. D(H  59,C  57,C  53,C   6)    178.9349         0.010340   
    548. D(H  66,C  60,C  53,C  57)   -178.1164         0.010887   
    549. D(H  66,C  60,C  53,C  54)    -59.6809         0.010887   
    550. D(H  66,C  60,C  53,C   6)     61.4900         0.010887   
    551. D(H  65,C  60,C  53,C  57)     59.9187         0.010887   
    552. D(H  65,C  60,C  53,C  54)    178.3542         0.010887   
    553. D(H  65,C  60,C  53,C   6)    -60.4749         0.010887   
    554. D(H  64,C  60,C  53,C  57)    -59.2302         0.010887   
    555. D(H  64,C  60,C  53,C  54)     59.2053         0.010887   
    556. D(H  64,C  60,C  53,C   6)   -179.6238         0.010887   
    557. D(C  71,C  67,C  34,H  49)    179.4871         0.010311   
    558. D(C  71,C  67,C  34,H  27)     59.0888         0.010311   
    559. D(C  71,C  67,C  34,H   7)    -60.7296         0.010311   
    560. D(C  68,C  67,C  34,H  49)    -62.7575         0.010311   
    561. D(C  68,C  67,C  34,H  27)    176.8442         0.010311   
    562. D(C  71,C  67,C  12,C  30)    120.4079         0.010587   
    563. D(C  12,C  67,C  34,H  27)    -60.3175         0.010311   
    564. D(C  12,C  67,C  34,H   7)    179.8640         0.010311   
    565. D(C  68,C  67,C  34,H   7)     57.0257         0.010311   
    566. D(C  71,C  67,C  12,C  23)    -59.5092         0.010587   
    567. D(C  68,C  67,C  12,C  30)      0.1251         0.010587   
    568. D(C  68,C  67,C  12,C  23)   -179.7920         0.010587   
    569. D(C  12,C  67,C  34,H  49)     60.0807         0.010311   
    570. D(C  34,C  67,C  12,C  30)   -120.0627         0.010587   
    571. D(C  34,C  67,C  12,C  23)     60.0202         0.010587   
    572. D(H  72,C  68,C  67,C  71)     59.0547         0.010920   
    573. D(H  72,C  68,C  67,C  34)    -59.4349         0.010920   
    574. D(H  72,C  68,C  67,C  12)    179.8844         0.010920   
    575. D(H  70,C  68,C  67,C  71)    -59.9434         0.010920   
    576. D(H  70,C  68,C  67,C  34)   -178.4330         0.010920   
    577. D(H  70,C  68,C  67,C  12)     60.8862         0.010920   
    578. D(H  69,C  68,C  67,C  71)    178.0214         0.010920   
    579. D(H  69,C  68,C  67,C  34)     59.5318         0.010920   
    580. D(H  69,C  68,C  67,C  12)    -61.1489         0.010920   
    581. D(H  73,C  71,C  67,C  12)     60.4778         0.010319   
    582. D(H  63,C  71,C  67,C  12)    -59.9490         0.010319   
    583. D(H  22,C  71,C  67,C  68)    -56.8105         0.010319   
    584. D(H  22,C  71,C  67,C  34)     60.9352         0.010319   
    585. D(H  22,C  71,C  67,C  12)   -179.7266         0.010319   
    586. D(H  63,C  71,C  67,C  34)   -179.2872         0.010319   
    587. D(H  73,C  71,C  67,C  34)    -58.8604         0.010319   
    588. D(H  73,C  71,C  67,C  68)   -176.6061         0.010319   
    589. D(H  63,C  71,C  67,C  68)     62.9671         0.010319   
    590. D(C  83,C  81,C  80,C  97)    172.8778         0.025227   
    591. D(C  83,C  81,C  80,C  89)     -1.9675         0.025227   
    592. D(H  82,C  81,C  80,C  97)     -5.5191         0.025227   
    593. D(H  82,C  81,C  80,C  89)    179.6356         0.025227   
    594. D(C  85,C  83,C  81,H  82)    179.1276         0.028074   
    595. D(C  85,C  83,C  81,C  80)      0.7278         0.028074   
    596. D(H  84,C  83,C  81,H  82)      0.7772         0.028074   
    597. D(H  84,C  83,C  81,C  80)   -177.6226         0.028074   
    598. D(C 132,C  85,C  83,H  84)      0.9913         0.024794   
    599. D(C 132,C  85,C  83,C  81)   -177.3265         0.024794   
    600. D(C  87,C  85,C  83,H  84)    179.3869         0.024794   
    601. D(C  87,C  85,C  83,C  81)      1.0691         0.024794   
    602. D(C  89,C  87,C  85,C 132)    176.7255         0.025777   
    603. D(C  89,C  87,C  85,C  83)     -1.6095         0.025777   
    604. D(H  88,C  87,C  85,C 132)     -1.7355         0.025777   
    605. D(H  88,C  87,C  85,C  83)    179.9296         0.025777   
    606. D(H  90,C  89,C  87,H  88)      1.0333         0.026637   
    607. D(H  90,C  89,C  87,C  85)   -177.4594         0.026637   
    608. D(C  80,C  89,C  87,H  88)    178.8610         0.026637   
    609. D(C  80,C  89,C  87,C  85)      0.3683         0.026637   
    610. D(H  90,C  89,C  80,C  97)      4.3835         0.025839   
    611. D(H  90,C  89,C  80,C  81)    179.2655         0.025839   
    612. D(C  87,C  89,C  80,C  97)   -173.4524         0.025839   
    613. D(C  87,C  89,C  80,C  81)      1.4297         0.025839   
    614. D(C 107,C  92,C  79,C  99)    178.3424         0.026056   
    615. D(C 107,C  92,C  79,H  98)     -0.7124         0.026056   
    616. D(C  93,C  92,C  79,C  99)     -1.3570         0.026056   
    617. D(C  93,C  92,C  79,H  98)    179.5882         0.026056   
    618. D(C  95,C  93,C  92,C 107)   -179.1755         0.021189   
    619. D(C  95,C  93,C  92,C  79)      0.5320         0.021189   
    620. D(C  94,C  93,C  92,C 107)      1.9377         0.021189   
    621. D(C  94,C  93,C  92,C  79)   -178.3548         0.021189   
    622. D(C 112,C  94,C  93,C  95)     -0.5161         0.019846   
    623. D(C 112,C  94,C  93,C  92)    178.3883         0.019846   
    624. D(C 111,C  94,C  93,C  95)    179.2480         0.019846   
    625. D(C 111,C  94,C  93,C  92)     -1.8476         0.019846   
    626. D(C  97,C  95,C  93,C  94)   -179.4944         0.019717   
    627. D(C  97,C  95,C  93,C  92)      1.5967         0.019717   
    628. D(C  96,C  95,C  93,C  94)      1.9236         0.019717   
    629. D(C  96,C  95,C  93,C  92)   -176.9853         0.019717   
    630. D(H 116,C  96,C  95,C  97)     -1.3403         0.021747   
    631. D(H 116,C  96,C  95,C  93)    177.2297         0.021747   
    632. D(C 115,C  96,C  95,C  97)    179.6400         0.021747   
    633. D(C 115,C  96,C  95,C  93)     -1.7901         0.021747   
    634. D(C  99,C  97,C  95,C  96)    175.6713         0.021611   
    635. D(C  99,C  97,C  95,C  93)     -2.8848         0.021611   
    636. D(C  80,C  97,C  95,C  96)     -6.8560         0.021611   
    637. D(C  80,C  97,C  95,C  93)    174.5879         0.021611   
    638. D(C  99,C  97,C  80,C  89)    116.9315         0.013817   
    639. D(C  99,C  97,C  80,C  81)    -57.7811         0.013817   
    640. D(C  95,C  97,C  80,C  89)    -60.5266         0.013817   
    641. D(C  95,C  97,C  80,C  81)    124.7607         0.013817   
    642. D(C 100,C  99,C  97,C  95)   -178.9719         0.023128   
    643. D(C 100,C  99,C  97,C  80)      3.4805         0.023128   
    644. D(C  79,C  99,C  97,C  95)      2.1029         0.023128   
    645. D(C  79,C  99,C  97,C  80)   -175.4447         0.023128   
    646. D(C 100,C  99,C  79,H  98)      0.2052         0.024299   
    647. D(C 100,C  99,C  79,C  92)   -178.8867         0.024299   
    648. D(C  97,C  99,C  79,H  98)    179.1256         0.024299   
    649. D(C  97,C  99,C  79,C  92)      0.0337         0.024299   
    650. D(C  29,C 100,C  99,C  97)     11.2452         0.020759   
    651. D(C  29,C 100,C  99,C  79)   -169.8212         0.020759   
    652. D(C  99,C 100,C  29,C 127)     28.1224         0.086723   
    653. D(H 124,C 102,C  91,C 120)     -0.0598         0.022746   
    654. D(H 124,C 102,C  91,C 109)    179.8210         0.022746   
    655. D(C 103,C 102,C  91,C 120)    179.9880         0.022746   
    656. D(C 103,C 102,C  91,C 109)     -0.1313         0.022746   
    657. D(C 105,C 103,C 102,H 124)   -179.9520         0.031152   
    658. D(C 105,C 103,C 102,C  91)      0.0008         0.031152   
    659. D(H 104,C 103,C 102,H 124)      0.0691         0.031152   
    660. D(H 104,C 103,C 102,C  91)   -179.9781         0.031152   
    661. D(C 107,C 105,C 103,H 104)   -179.8082         0.022559   
    662. D(C 107,C 105,C 103,C 102)      0.2126         0.022559   
    663. D(C 111,C 105,C 103,H 104)     -0.1112         0.022559   
    664. D(C 111,C 105,C 103,C 102)    179.9096         0.022559   
    665. D(C 109,C 107,C 105,C 111)   -179.9884         0.021371   
    666. D(C 109,C 107,C 105,C 103)     -0.2889         0.021371   
    667. D(C  92,C 107,C 105,C 111)      0.2089         0.021371   
    668. D(C  92,C 107,C 105,C 103)    179.9085         0.021371   
    669. D(C 109,C 107,C  92,C  93)    179.0971         0.016399   
    670. D(C 109,C 107,C  92,C  79)     -0.5985         0.016399   
    671. D(C 105,C 107,C  92,C  93)     -1.1076         0.016399   
    672. D(C 105,C 107,C  92,C  79)    179.1968         0.016399   
    673. D(H 110,C 109,C 107,C 105)    179.9933         0.023583   
    674. D(H 110,C 109,C 107,C  92)     -0.2096         0.023583   
    675. D(C  91,C 109,C 107,C 105)      0.1649         0.023583   
    676. D(C  91,C 109,C 107,C  92)    179.9620         0.023583   
    677. D(H 110,C 109,C  91,C 120)      0.0942         0.028223   
    678. D(H 110,C 109,C  91,C 102)   -179.7824         0.028223   
    679. D(C 107,C 109,C  91,C 120)    179.9226         0.028223   
    680. D(C 107,C 109,C  91,C 102)      0.0460         0.028223   
    681. D(C 114,C 111,C 105,C 107)   -179.7453         0.019824   
    682. D(C 114,C 111,C 105,C 103)      0.5633         0.019824   
    683. D(C  94,C 111,C 105,C 107)     -0.1236         0.019824   
    684. D(C  94,C 111,C 105,C 103)   -179.8149         0.019824   
    685. D(C 114,C 111,C  94,C 112)      0.3078         0.020332   
    686. D(C 114,C 111,C  94,C  93)   -179.4520         0.020332   
    687. D(C 105,C 111,C  94,C 112)   -179.3136         0.020332   
    688. D(C 105,C 111,C  94,C  93)      0.9266         0.020332   
    689. D(H 117,C 112,C  94,C 111)      0.1588         0.024035   
    690. D(H 117,C 112,C  94,C  93)    179.9184         0.024035   
    691. D(C 115,C 112,C  94,C 111)    179.1096         0.024035   
    692. D(C 115,C 112,C  94,C  93)     -1.1309         0.024035   
    693. D(C 118,C 115,C 112,H 117)      0.6084         0.025962   
    694. D(C 118,C 115,C 112,C  94)   -178.3285         0.025962   
    695. D(C  96,C 115,C 112,H 117)   -179.7474         0.025962   
    696. D(C  96,C 115,C 112,C  94)      1.3157         0.025962   
    697. D(C 118,C 115,C  96,H 116)      0.8060         0.028114   
    698. D(C 118,C 115,C  96,C  95)    179.8139         0.028114   
    699. D(C 112,C 115,C  96,H 116)   -178.8341         0.028114   
    700. D(C 112,C 115,C  96,C  95)      0.1738         0.028114   
    701. D(H  52,C 118,C 115,C 112)   -179.7740         0.012493   
    702. D(H  52,C 118,C 115,C  96)      0.5888         0.012493   
    703. D(H  51,C 118,C 115,C 112)    -59.2520         0.012493   
    704. D(H  51,C 118,C 115,C  96)    121.1108         0.012493   
    705. D(H  50,C 118,C 115,C 112)     59.6765         0.012493   
    706. D(H  50,C 118,C 115,C  96)   -119.9607         0.012493   
    707. D(C 122,C 120,C 119,H 126)     60.9477         0.010322   
    708. D(C 122,C 120,C 119,H 123)    -58.8505         0.010322   
    709. D(C 122,C 120,C 119,H 121)   -179.2884         0.010322   
    710. D(C 113,C 120,C 119,H 126)    -56.8135         0.010322   
    711. D(C 113,C 120,C 119,H 121)     62.9505         0.010322   
    712. D(C  91,C 120,C 119,H 126)   -179.6532         0.010322   
    713. D(C  91,C 120,C 119,H 123)     60.5487         0.010322   
    714. D(C 122,C 120,C 113,H 128)    -59.5027         0.010919   
    715. D(C 122,C 120,C 113,H 106)   -178.5494         0.010919   
    716. D(C 122,C 120,C 113,H  86)     59.4745         0.010919   
    717. D(C 119,C 120,C 113,H 128)     58.9887         0.010919   
    718. D(C 119,C 120,C 113,H 106)    -60.0580         0.010919   
    719. D(C 119,C 120,C 113,H  86)    177.9659         0.010919   
    720. D(C  91,C 120,C 113,H 128)    179.7896         0.010919   
    721. D(C  91,C 120,C 119,H 121)    -59.8893         0.010322   
    722. D(C  91,C 120,C 113,H 106)     60.7429         0.010919   
    723. D(C  91,C 120,C 113,H  86)    -61.2332         0.010919   
    724. D(C 122,C 120,C  91,C 109)   -119.4219         0.010572   
    725. D(C 113,C 120,C 119,H 123)   -176.6116         0.010322   
    726. D(C 122,C 120,C  91,C 102)     60.4524         0.010572   
    727. D(C 119,C 120,C  91,C 109)    121.0103         0.010572   
    728. D(C 119,C 120,C  91,C 102)    -59.1154         0.010572   
    729. D(C 113,C 120,C  91,C 109)      0.7841         0.010572   
    730. D(C 113,C 120,C  91,C 102)   -179.3416         0.010572   
    731. D(H 130,C 122,C 120,C 119)    179.6564         0.010312   
    732. D(H 130,C 122,C 120,C 113)    -62.6041         0.010312   
    733. D(H 130,C 122,C 120,C  91)     60.1998         0.010312   
    734. D(H 101,C 122,C 120,C 119)     59.3037         0.010312   
    735. D(H 101,C 122,C 120,C 113)    177.0432         0.010312   
    736. D(H 101,C 122,C 120,C  91)    -60.1529         0.010312   
    737. D(H  78,C 122,C 120,C 119)    -60.5388         0.010312   
    738. D(H  78,C 122,C 120,C 113)     57.2008         0.010312   
    739. D(H  78,C 122,C 120,C  91)   -179.9953         0.010312   
    740. D(C  45,C 132,C  85,C  87)   -116.2030         0.010519   
    741. D(C  45,C 132,C  85,C  83)     62.0984         0.010519   
    742. D(C  44,C 132,C  85,C  83)    -57.2205         0.010519   
    743. D(C  41,C 132,C  85,C  87)      3.9240         0.010519   
    744. D(C  41,C 132,C  85,C  83)   -177.7747         0.010519   
    745. D(C  85,C 132,C  45,H 129)    -59.0687         0.010325   
    746. D(C  85,C 132,C  45,H 125)   -179.2385         0.010325   
    747. D(C  44,C 132,C  45,H 131)   -179.7867         0.010325   
    748. D(C  44,C 132,C  45,H 129)     60.3228         0.010325   
    749. D(C  44,C 132,C  45,H 125)    -59.8470         0.010325   
    750. D(C  41,C 132,C  45,H 131)    -61.7490         0.010325   
    751. D(C  41,C 132,C  45,H 129)    178.3606         0.010325   
    752. D(C  41,C 132,C  45,H 125)     58.1908         0.010325   
    753. D(C  85,C 132,C  44,H  47)    -60.1603         0.010391   
    754. D(C  85,C 132,C  44,H  46)     60.2344         0.010391   
    755. D(C  85,C 132,C  44,H  43)    179.8918         0.010391   
    756. D(C  45,C 132,C  44,H  47)   -178.9584         0.010391   
    757. D(C  45,C 132,C  44,H  46)    -58.5638         0.010391   
    758. D(C  45,C 132,C  44,H  43)     61.0937         0.010391   
    759. D(C  41,C 132,C  44,H  47)     62.8914         0.010391   
    760. D(C  41,C 132,C  44,H  46)   -176.7140         0.010391   
    761. D(C  41,C 132,C  44,H  43)    -57.0565         0.010391   
    762. D(C  85,C 132,C  41,H  48)     60.1463         0.010928   
    763. D(C  85,C 132,C  41,H  42)    179.4087         0.010928   
    764. D(C  85,C 132,C  41,H  40)    -61.6574         0.010928   
    765. D(C  85,C 132,C  45,H 131)     60.8217         0.010325   
    766. D(C  45,C 132,C  41,H  48)   -179.7329         0.010928   
    767. D(C  45,C 132,C  41,H  42)    -60.4706         0.010928   
    768. D(C  45,C 132,C  41,H  40)     58.4634         0.010928   
    769. D(C  44,C 132,C  85,C  87)    124.4782         0.010519   
    770. D(C  44,C 132,C  41,H  48)    -61.0545         0.010928   
    771. D(C  44,C 132,C  41,H  42)     58.2078         0.010928   
    772. D(C  44,C 132,C  41,H  40)    177.1418         0.010928   
    -----------------------------------------------------------------

Number of atoms                         .... 136
Number of degrees of freedom            .... 772

         *************************************************************
         *                GEOMETRY OPTIMIZATION CYCLE   1            *
         *************************************************************
---------------------------------
CARTESIAN COORDINATES (ANGSTROEM)
---------------------------------
  C     -4.028067   -1.369796   -0.061214
  C     -2.886285    2.014860   -1.351705
  C     -3.119409    3.279882   -0.805831
  H     -3.941216    3.413364   -0.107039
  C     -2.314391    4.366797   -1.133917
  H     -2.540731    5.327159   -0.683156
  C     -1.240753    4.236089   -2.018411
  H     -5.995101   -7.946965    1.765939
  C     -1.001694    2.960213   -2.547266
  H     -0.178105    2.806715   -3.239148
  C     -1.801608    1.874125   -2.225307
  H     -1.595328    0.904786   -2.668801
  C     -6.562666   -4.553353    1.414321
  C     -5.416216   -1.303666   -0.154235
  C     -5.995069   -0.144970   -0.739403
  C     -7.410267   -0.052621   -0.925498
  C     -5.164570    0.931854   -1.186356
  C     -5.770981    2.030908   -1.847155
  C     -3.753869    0.868896   -1.003669
  H     -3.536752   -2.241123    0.352169
  C     -3.199068   -0.311459   -0.471894
  C     -1.806366   -0.460294   -0.300413
  H     -6.206959   -6.790596    4.028743
  C     -7.956853   -4.431436    1.224515
  C     -8.498750   -3.327460    0.616371
  H     -9.573104   -3.248691    0.483492
  C     -7.681812   -2.271872    0.151689
  H     -7.476386   -7.157257    1.205861
  C     -6.276222   -2.375670    0.325548
  C      0.731102   -0.673472   -0.028742
  C     -5.759672   -3.521216    0.959382
  H     -4.690682   -3.595694    1.103682
  C     -8.247842   -1.115718   -0.471517
  C     -7.952072    1.081520   -1.552170
  C     -6.391007   -7.044347    1.286380
  C     -9.641130   -1.028580   -0.643186
  C     -7.142010    2.112052   -2.028074
  H     -5.137052    2.817624   -2.241292
  H     -9.029172    1.135283   -1.684988
  C     -7.760469    3.286910   -2.735333
  H     -0.463772    3.302085    5.184891
  C     -0.494316    4.252790    4.642056
  H     -1.369258    4.807429    4.997390
  H     -1.573392    5.968288    2.851226
  C     -0.716652    5.414889    2.449127
  C     -1.884571    3.223536    2.843572
  H     -0.858057    5.316753    1.368675
  H      0.188793    6.007107    2.621623
  H      0.397718    4.832582    4.904209
  H     -5.982020   -6.984833    0.272171
  H      8.033875    4.461084    1.550850
  H      8.022880    3.742810    3.161694
  H      6.571766    4.555612    2.548739
  C     -0.352126    5.412201   -2.429770
[...]
 1340( 0) :     2.532979 a.u.    68.926 eV
 1341( 0) :     2.534719 a.u.    68.973 eV
 1342( 0) :     2.539009 a.u.    69.090 eV
 1343( 0) :     2.540934 a.u.    69.142 eV
 1344( 0) :     2.543761 a.u.    69.219 eV
 1345( 0) :     2.547729 a.u.    69.327 eV
 1346( 0) :     2.551971 a.u.    69.443 eV
 1347( 0) :     2.558248 a.u.    69.613 eV
 1348( 0) :     2.560387 a.u.    69.672 eV
 1349( 0) :     2.563054 a.u.    69.744 eV
 1350( 0) :     2.567281 a.u.    69.859 eV
 1351( 0) :     2.576216 a.u.    70.102 eV
 1352( 0) :     2.579648 a.u.    70.196 eV
 1353( 0) :     2.580820 a.u.    70.228 eV
 1354( 0) :     2.581917 a.u.    70.258 eV
 1355( 0) :     2.583268 a.u.    70.294 eV
 1356( 0) :     2.584922 a.u.    70.339 eV
 1357( 0) :     2.586431 a.u.    70.380 eV
 1358( 0) :     2.587648 a.u.    70.413 eV
 1359( 0) :     2.589600 a.u.    70.467 eV
 1360( 0) :     2.590509 a.u.    70.491 eV
 1361( 0) :     2.593199 a.u.    70.565 eV
 1362( 0) :     2.593667 a.u.    70.577 eV
 1363( 0) :     2.596442 a.u.    70.653 eV
 1364( 0) :     2.598408 a.u.    70.706 eV
 1365( 0) :     2.600399 a.u.    70.760 eV
 1366( 0) :     2.603972 a.u.    70.858 eV
 1367( 0) :     2.604464 a.u.    70.871 eV
 1368( 0) :     2.607324 a.u.    70.949 eV
 1369( 0) :     2.614695 a.u.    71.149 eV
 1370( 0) :     2.622891 a.u.    71.372 eV
 1371( 0) :     2.633351 a.u.    71.657 eV
 1372( 0) :     2.638263 a.u.    71.791 eV
 1373( 0) :     2.638594 a.u.    71.800 eV
 1374( 0) :     2.641228 a.u.    71.871 eV
 1375( 0) :     2.642266 a.u.    71.900 eV
 1376( 0) :     2.646394 a.u.    72.012 eV
 1377( 0) :     2.646884 a.u.    72.025 eV
 1378( 0) :     2.647651 a.u.    72.046 eV
 1379( 0) :     2.655017 a.u.    72.247 eV
 1380( 0) :     2.657758 a.u.    72.321 eV
 1381( 0) :     2.659591 a.u.    72.371 eV
 1382( 0) :     2.662585 a.u.    72.453 eV
 1383( 0) :     2.665867 a.u.    72.542 eV
 1384( 0) :     2.667213 a.u.    72.579 eV
 1385( 0) :     2.668815 a.u.    72.622 eV
 1386( 0) :     2.671481 a.u.    72.695 eV
 1387( 0) :     2.675899 a.u.    72.815 eV
 1388( 0) :     2.678360 a.u.    72.882 eV
 1389( 0) :     2.684985 a.u.    73.062 eV
 1390( 0) :     2.687527 a.u.    73.131 eV
 1391( 0) :     2.689986 a.u.    73.198 eV
 1392( 0) :     2.695503 a.u.    73.348 eV
 1393( 0) :     2.698588 a.u.    73.432 eV
 1394( 0) :     2.701230 a.u.    73.504 eV
 1395( 0) :     2.703690 a.u.    73.571 eV
 1396( 0) :     2.704088 a.u.    73.582 eV
 1397( 0) :     2.707586 a.u.    73.677 eV
 1398( 0) :     2.713144 a.u.    73.828 eV
 1399( 0) :     2.720342 a.u.    74.024 eV
 1400( 0) :     2.726728 a.u.    74.198 eV
 1401( 0) :     2.732601 a.u.    74.358 eV
 1402( 0) :     2.734627 a.u.    74.413 eV
 1403( 0) :     2.736797 a.u.    74.472 eV
 1404( 0) :     2.738960 a.u.    74.531 eV
 1405( 0) :     2.743657 a.u.    74.659 eV
 1406( 0) :     2.748755 a.u.    74.797 eV
 1407( 0) :     2.751097 a.u.    74.861 eV
 1408( 0) :     2.753046 a.u.    74.914 eV
 1409( 0) :     2.760594 a.u.    75.120 eV
 1410( 0) :     2.766839 a.u.    75.290 eV
 1411( 0) :     2.777106 a.u.    75.569 eV
 1412( 0) :     2.782891 a.u.    75.726 eV
 1413( 0) :     2.792130 a.u.    75.978 eV
 1414( 0) :     2.793666 a.u.    76.020 eV
 1415( 0) :     2.794252 a.u.    76.035 eV
 1416( 0) :     2.796230 a.u.    76.089 eV
 1417( 0) :     2.798035 a.u.    76.138 eV
 1418( 0) :     2.799485 a.u.    76.178 eV
 1419( 0) :     2.808725 a.u.    76.429 eV
 1420( 0) :     2.811767 a.u.    76.512 eV
 1421( 0) :     2.814558 a.u.    76.588 eV
 1422( 0) :     2.820452 a.u.    76.748 eV
 1423( 0) :     2.822718 a.u.    76.810 eV
 1424( 0) :     2.823186 a.u.    76.823 eV
 1425( 0) :     2.825448 a.u.    76.884 eV
 1426( 0) :     2.828592 a.u.    76.970 eV
 1427( 0) :     2.829915 a.u.    77.006 eV
 1428( 0) :     2.833208 a.u.    77.096 eV
 1429( 0) :     2.835681 a.u.    77.163 eV
 1430( 0) :     2.842243 a.u.    77.341 eV
 1431( 0) :     2.846229 a.u.    77.450 eV
 1432( 0) :     2.851455 a.u.    77.592 eV
 1433( 0) :     2.854638 a.u.    77.679 eV
 1434( 0) :     2.857667 a.u.    77.761 eV
 1435( 0) :     2.863487 a.u.    77.919 eV
 1436( 0) :     2.868820 a.u.    78.065 eV
 1437( 0) :     2.879280 a.u.    78.349 eV
 1438( 0) :     2.886088 a.u.    78.534 eV
 1439( 0) :     2.888070 a.u.    78.588 eV
 1440( 0) :     2.888948 a.u.    78.612 eV
 1441( 0) :     2.889523 a.u.    78.628 eV
 1442( 0) :     2.894705 a.u.    78.769 eV
 1443( 0) :     2.898285 a.u.    78.866 eV
 1444( 0) :     2.901009 a.u.    78.940 eV
 1445( 0) :     2.913584 a.u.    79.283 eV
 1446( 0) :     2.925648 a.u.    79.611 eV
 1447( 0) :     2.930226 a.u.    79.736 eV
 1448( 0) :     2.941903 a.u.    80.053 eV
 1449( 0) :     2.944748 a.u.    80.131 eV
 1450( 0) :     2.946390 a.u.    80.175 eV
 1451( 0) :     2.947740 a.u.    80.212 eV
 1452( 0) :     2.959206 a.u.    80.524 eV
 1453( 0) :     2.966277 a.u.    80.717 eV
 1454( 0) :     2.967526 a.u.    80.750 eV
 1455( 0) :     2.971949 a.u.    80.871 eV
 1456( 0) :     2.978021 a.u.    81.036 eV
 1457( 0) :     3.004937 a.u.    81.768 eV
 1458( 0) :     3.009350 a.u.    81.889 eV
 1459( 0) :     3.012977 a.u.    81.987 eV
 1460( 0) :     3.016126 a.u.    82.073 eV
 1461( 0) :     3.026729 a.u.    82.361 eV
 1462( 0) :     3.028557 a.u.    82.411 eV
 1463( 0) :     3.032811 a.u.    82.527 eV
 1464( 0) :     3.040305 a.u.    82.731 eV
 1465( 0) :     3.040718 a.u.    82.742 eV
 1466( 0) :     3.052131 a.u.    83.053 eV
 1467( 0) :     3.053515 a.u.    83.090 eV
 1468( 0) :     3.053698 a.u.    83.095 eV
 1469( 0) :     3.054306 a.u.    83.112 eV
 1470( 0) :     3.057465 a.u.    83.198 eV
 1471( 0) :     3.060444 a.u.    83.279 eV
 1472( 0) :     3.065377 a.u.    83.413 eV
 1473( 0) :     3.070820 a.u.    83.561 eV
 1474( 0) :     3.082855 a.u.    83.889 eV
 1475( 0) :     3.086356 a.u.    83.984 eV
 1476( 0) :     3.090194 a.u.    84.088 eV
 1477( 0) :     3.093619 a.u.    84.182 eV
 1478( 0) :     3.098135 a.u.    84.305 eV
 1479( 0) :     3.099901 a.u.    84.353 eV
 1480( 0) :     3.103212 a.u.    84.443 eV
 1481( 0) :     3.106567 a.u.    84.534 eV
 1482( 0) :     3.127817 a.u.    85.112 eV
 1483( 0) :     3.156738 a.u.    85.899 eV
 1484( 0) :     3.164755 a.u.    86.117 eV
 1485( 0) :     3.172537 a.u.    86.329 eV
 1486( 0) :     3.176799 a.u.    86.445 eV
 1487( 0) :     3.194051 a.u.    86.915 eV
 1488( 0) :     3.197075 a.u.    86.997 eV
 1489( 0) :     3.209550 a.u.    87.336 eV
 1490( 0) :     3.215083 a.u.    87.487 eV
 1491( 0) :     3.219020 a.u.    87.594 eV
 1492( 0) :     3.221884 a.u.    87.672 eV
 1493( 0) :     3.228428 a.u.    87.850 eV
 1494( 0) :     3.230972 a.u.    87.919 eV
 1495( 0) :     3.231825 a.u.    87.942 eV
 1496( 0) :     3.233868 a.u.    87.998 eV
 1497( 0) :     3.236048 a.u.    88.057 eV
 1498( 0) :     3.239774 a.u.    88.159 eV
 1499( 0) :     3.247492 a.u.    88.369 eV
 1500( 0) :     3.251280 a.u.    88.472 eV
 1501( 0) :     3.254328 a.u.    88.555 eV
 1502( 0) :     3.254973 a.u.    88.572 eV
 1503( 0) :     3.263747 a.u.    88.811 eV
 1504( 0) :     3.266594 a.u.    88.889 eV
 1505( 0) :     3.267893 a.u.    88.924 eV
 1506( 0) :     3.272148 a.u.    89.040 eV
 1507( 0) :     3.274862 a.u.    89.114 eV
 1508( 0) :     3.276682 a.u.    89.163 eV
 1509( 0) :     3.284406 a.u.    89.373 eV
 1510( 0) :     3.289338 a.u.    89.507 eV
 1511( 0) :     3.293683 a.u.    89.626 eV
 1512( 0) :     3.297561 a.u.    89.731 eV
 1513( 0) :     3.301112 a.u.    89.828 eV
 1514( 0) :     3.309277 a.u.    90.050 eV
 1515( 0) :     3.314114 a.u.    90.182 eV
 1516( 0) :     3.315705 a.u.    90.225 eV
 1517( 0) :     3.329590 a.u.    90.603 eV
 1518( 0) :     3.336144 a.u.    90.781 eV
 1519( 0) :     3.339342 a.u.    90.868 eV
 1520( 0) :     3.341394 a.u.    90.924 eV
 1521( 0) :     3.348705 a.u.    91.123 eV
 1522( 0) :     3.354225 a.u.    91.273 eV
 1523( 0) :     3.356898 a.u.    91.346 eV
 1524( 0) :     3.359881 a.u.    91.427 eV
 1525( 0) :     3.372549 a.u.    91.772 eV
 1526( 0) :     3.372676 a.u.    91.775 eV
 1527( 0) :     3.376731 a.u.    91.886 eV
 1528( 0) :     3.383098 a.u.    92.059 eV
 1529( 0) :     3.387525 a.u.    92.179 eV
 1530( 0) :     3.400366 a.u.    92.529 eV
 1531( 0) :     3.401040 a.u.    92.547 eV
 1532( 0) :     3.417179 a.u.    92.986 eV
 1533( 0) :     3.421708 a.u.    93.109 eV
 1534( 0) :     3.425359 a.u.    93.209 eV
 1535( 0) :     3.431041 a.u.    93.363 eV
 1536( 0) :     3.439882 a.u.    93.604 eV
 1537( 0) :     3.443197 a.u.    93.694 eV
 1538( 0) :     3.446488 a.u.    93.784 eV
 1539( 0) :     3.447937 a.u.    93.823 eV
 1540( 0) :     3.457960 a.u.    94.096 eV
 1541( 0) :     3.463017 a.u.    94.233 eV
 1542( 0) :     3.465703 a.u.    94.307 eV
 1543( 0) :     3.471668 a.u.    94.469 eV
 1544( 0) :     3.480721 a.u.    94.715 eV
 1545( 0) :     3.487787 a.u.    94.908 eV
 1546( 0) :     3.498120 a.u.    95.189 eV
 1547( 0) :     3.505389 a.u.    95.386 eV
 1548( 0) :     3.513712 a.u.    95.613 eV
 1549( 0) :     3.514220 a.u.    95.627 eV
 1550( 0) :     3.515545 a.u.    95.663 eV
 1551( 0) :     3.523827 a.u.    95.888 eV
 1552( 0) :     3.524473 a.u.    95.906 eV
 1553( 0) :     3.525582 a.u.    95.936 eV
 1554( 0) :     3.528419 a.u.    96.013 eV
 1555( 0) :     3.529453 a.u.    96.041 eV
 1556( 0) :     3.532174 a.u.    96.115 eV
 1557( 0) :     3.534028 a.u.    96.166 eV
 1558( 0) :     3.536054 a.u.    96.221 eV
 1559( 0) :     3.538367 a.u.    96.284 eV
 1560( 0) :     3.542684 a.u.    96.401 eV
 1561( 0) :     3.546300 a.u.    96.500 eV
 1562( 0) :     3.549046 a.u.    96.574 eV
 1563( 0) :     3.556710 a.u.    96.783 eV
 1564( 0) :     3.559742 a.u.    96.866 eV
 1565( 0) :     3.562204 a.u.    96.933 eV
 1566( 0) :     3.567212 a.u.    97.069 eV
 1567( 0) :     3.567878 a.u.    97.087 eV
 1568( 0) :     3.568456 a.u.    97.103 eV
 1569( 0) :     3.577622 a.u.    97.352 eV
 1570( 0) :     3.578134 a.u.    97.366 eV
 1571( 0) :     3.578435 a.u.    97.374 eV
 1572( 0) :     3.581663 a.u.    97.462 eV
 1573( 0) :     3.582902 a.u.    97.496 eV
 1574( 0) :     3.584598 a.u.    97.542 eV
 1575( 0) :     3.586027 a.u.    97.581 eV
 1576( 0) :     3.598261 a.u.    97.914 eV
 1577( 0) :     3.601595 a.u.    98.004 eV
 1578( 0) :     3.602113 a.u.    98.018 eV
 1579( 0) :     3.602459 a.u.    98.028 eV
 1580( 0) :     3.603441 a.u.    98.055 eV
 1581( 0) :     3.607058 a.u.    98.153 eV
 1582( 0) :     3.608440 a.u.    98.191 eV
 1583( 0) :     3.610425 a.u.    98.245 eV
 1584( 0) :     3.614361 a.u.    98.352 eV
 1585( 0) :     3.618240 a.u.    98.457 eV
 1586( 0) :     3.619205 a.u.    98.484 eV
 1587( 0) :     3.623153 a.u.    98.591 eV
 1588( 0) :     3.634828 a.u.    98.909 eV
 1589( 0) :     3.635903 a.u.    98.938 eV
 1590( 0) :     3.644194 a.u.    99.164 eV
 1591( 0) :     3.646266 a.u.    99.220 eV
 1592( 0) :     3.652128 a.u.    99.379 eV
 1593( 0) :     3.659747 a.u.    99.587 eV
 1594( 0) :     3.664786 a.u.    99.724 eV
 1595( 0) :     3.667413 a.u.    99.795 eV
 1596( 0) :     3.671905 a.u.    99.918 eV
 1597( 0) :     3.674495 a.u.    99.988 eV
 1598( 0) :     3.681514 a.u.   100.179 eV
 1599( 0) :     3.701973 a.u.   100.736 eV
 1600( 0) :     3.715417 a.u.   101.102 eV
 1601( 0) :     3.745592 a.u.   101.923 eV
 1602( 0) :     3.756805 a.u.   102.228 eV
 1603( 0) :     3.786408 a.u.   103.033 eV
 1604( 0) :     3.791762 a.u.   103.179 eV
 1605( 0) :     3.822684 a.u.   104.021 eV
 1606( 0) :     3.877709 a.u.   105.518 eV
 1607( 0) :     3.928629 a.u.   106.903 eV
 1608( 0) :     3.930796 a.u.   106.962 eV
 1609( 0) :     3.985239 a.u.   108.444 eV
 1610( 0) :     3.992539 a.u.   108.643 eV
 1611( 0) :     4.011458 a.u.   109.157 eV
 1612( 0) :     4.023889 a.u.   109.496 eV
 1613( 0) :     4.266541 a.u.   116.098 eV
 1614( 0) :     4.267634 a.u.   116.128 eV
 1615( 0) :     4.330966 a.u.   117.852 eV
 1616( 0) :    21.301632 a.u.   579.647 eV
 1617( 0) :    21.364087 a.u.   581.346 eV
 1618( 0) :    21.517408 a.u.   585.518 eV
 1619( 0) :    21.592800 a.u.   587.570 eV
 1620( 0) :    21.602705 a.u.   587.839 eV
 1621( 0) :    21.643351 a.u.   588.946 eV
 1622( 0) :    21.682106 a.u.   590.000 eV
 1623( 0) :    21.764349 a.u.   592.238 eV
 1624( 0) :    21.781959 a.u.   592.717 eV
 1625( 0) :    21.811995 a.u.   593.535 eV
 1626( 0) :    21.830614 a.u.   594.041 eV
 1627( 0) :    21.892185 a.u.   595.717 eV
 1628( 0) :    21.902880 a.u.   596.008 eV
 1629( 0) :    21.960212 a.u.   597.568 eV
 1630( 0) :    21.979252 a.u.   598.086 eV
 1631( 0) :    21.989007 a.u.   598.351 eV
 1632( 0) :    21.993743 a.u.   598.480 eV
 1633( 0) :    21.999188 a.u.   598.628 eV
 1634( 0) :    22.001312 a.u.   598.686 eV
 1635( 0) :    22.014835 a.u.   599.054 eV
 1636( 0) :    22.025962 a.u.   599.357 eV
 1637( 0) :    22.030407 a.u.   599.478 eV
 1638( 0) :    22.030449 a.u.   599.479 eV
 1639( 0) :    22.036013 a.u.   599.630 eV
 1640( 0) :    22.048463 a.u.   599.969 eV
 1641( 0) :    22.053339 a.u.   600.102 eV
 1642( 0) :    22.063309 a.u.   600.373 eV
 1643( 0) :    22.072036 a.u.   600.611 eV
 1644( 0) :    22.088438 a.u.   601.057 eV
 1645( 0) :    22.091319 a.u.   601.135 eV
 1646( 0) :    22.098160 a.u.   601.322 eV
 1647( 0) :    22.106581 a.u.   601.551 eV
 1648( 0) :    22.107133 a.u.   601.566 eV
 1649( 0) :    22.114013 a.u.   601.753 eV
 1650( 0) :    22.131605 a.u.   602.232 eV
 1651( 0) :    22.137138 a.u.   602.382 eV
 1652( 0) :    22.139803 a.u.   602.455 eV
 1653( 0) :    22.149275 a.u.   602.712 eV
 1654( 0) :    22.157397 a.u.   602.933 eV
 1655( 0) :    22.171859 a.u.   603.327 eV
 1656( 0) :    22.174687 a.u.   603.404 eV
 1657( 0) :    22.188267 a.u.   603.773 eV
 1658( 0) :    22.197298 a.u.   604.019 eV
 1659( 0) :    22.207676 a.u.   604.302 eV
 1660( 0) :    22.210174 a.u.   604.370 eV
 1661( 0) :    22.225713 a.u.   604.792 eV
 1662( 0) :    22.229218 a.u.   604.888 eV
 1663( 0) :    22.248203 a.u.   605.404 eV
 1664( 0) :    22.258620 a.u.   605.688 eV
 1665( 0) :    22.260017 a.u.   605.726 eV
 1666( 0) :    22.270237 a.u.   606.004 eV
 1667( 0) :    22.271019 a.u.   606.025 eV
 1668( 0) :    22.285365 a.u.   606.416 eV
 1669( 0) :    22.287353 a.u.   606.470 eV
 1670( 0) :    22.295147 a.u.   606.682 eV
 1671( 0) :    22.311402 a.u.   607.124 eV
 1672( 0) :    22.316689 a.u.   607.268 eV
 1673( 0) :    22.322469 a.u.   607.425 eV
 1674( 0) :    22.330307 a.u.   607.639 eV
 1675( 0) :    22.349814 a.u.   608.169 eV
 1676( 0) :    22.354198 a.u.   608.289 eV
 1677( 0) :    22.374233 a.u.   608.834 eV
 1678( 0) :    22.392587 a.u.   609.333 eV
 1679( 0) :    22.395390 a.u.   609.410 eV
 1680( 0) :    22.417503 a.u.   610.011 eV
 1681( 0) :    22.437950 a.u.   610.568 eV
 1682( 0) :    22.453764 a.u.   610.998 eV
 1683( 0) :    22.462640 a.u.   611.240 eV
 1684( 0) :    22.500616 a.u.   612.273 eV
 1685( 0) :    22.838901 a.u.   621.478 eV
 1686( 0) :    22.839445 a.u.   621.493 eV
 1687( 0) :    23.328773 a.u.   634.808 eV
-------
TIMINGS
-------

Total SCF time: 0 days 0 hours 8 min 52 sec 

Total time                  ....     532.456 sec
Sum of individual times     ....     513.459 sec  ( 96.4%)

Fock matrix formation       ....     203.645 sec  ( 38.2%)
  Split-RI-J                ....      65.757 sec  ( 32.3% of F)
  XC integration            ....     130.747 sec  ( 64.2% of F)
    Basis function eval.    ....      11.663 sec  (  8.9% of XC)
    Density eval.           ....      74.064 sec  ( 56.6% of XC)
    XC-Functional eval.     ....       5.330 sec  (  4.1% of XC)
    XC-Potential eval.      ....      22.084 sec  ( 16.9% of XC)
Diagonalization             ....      35.028 sec  (  6.6%)
Density matrix formation    ....       4.027 sec  (  0.8%)
Population analysis         ....     214.616 sec  ( 40.3%)
Initial guess               ....      12.282 sec  (  2.3%)
Orbital Transformation      ....       0.000 sec  (  0.0%)
Orbital Orthonormalization  ....      11.288 sec  (  2.1%)
DIIS solution               ....      19.854 sec  (  3.7%)
Grid generation             ....      24.008 sec  (  4.5%)

Maximum memory used throughout the entire SCF-calculation: 531.7 MB


-------------------------------------------------------------------------------
                          DFT DISPERSION CORRECTION                            
                                                                               
                                 DFTD4 V2.5                                    
-------------------------------------------------------------------------------
The R2SCAN3C composite method is recognized
Using three-body term ABC
Active option DFTDOPT                   ...         5   

Starting D4
-------------------------   ----------------
Dispersion correction           -0.081339920
-------------------------   ----------------

------------------   -----------------
gCP correction             0.043427203
------------------   -----------------

-------------------------   --------------------
FINAL SINGLE POINT ENERGY     -2781.405758480251
-------------------------   --------------------

                                *** OPTIMIZATION RUN DONE ***

                            ***************************************
                            *     ORCA property calculations      *
                            ***************************************

                                    ---------------------
                                    Active property flags
                                    ---------------------
   (+) Dipole Moment


------------------------------------------------------------------------------
                       ORCA ELECTRIC PROPERTIES CALCULATION
------------------------------------------------------------------------------

Dipole Moment Calculation                       ... on
Quadrupole Moment Calculation                   ... off
Polarizability Calculation                      ... off
GBWName                                         ... oby_singlet_opt_uks_r2scan_3c_brsym.gbw
Electron density                                ... oby_singlet_opt_uks_r2scan_3c_brsym.scfp
The origin for moment calculation is the CENTER OF MASS  = (-0.005687, -0.010417 -0.009832)

-------------
DIPOLE MOMENT
-------------
                                X             Y             Z
Electronic contribution:      2.79021      -7.26259      -4.09564
Nuclear contribution   :     -2.96997       7.61707       4.04708
                        -----------------------------------------
Total Dipole Moment    :     -0.17976       0.35448      -0.04856
                        -----------------------------------------
Magnitude (a.u.)       :      0.40041
Magnitude (Debye)      :      1.01777



--------------------
Rotational spectrum 
--------------------
 
Rotational constants in cm-1:     0.001185     0.000495     0.000401 
Rotational constants in MHz :    35.518002    14.848852    12.012877 

 Dipole components along the rotational axes: 
x,y,z [a.u.] :    -0.179143     0.354716    -0.049136 
x,y,z [Debye]:    -0.455346     0.901617    -0.124895 

 
MPIWRAPPER IN -np 12 /gpfs/research/software/orca/orca_5_0_1_linux_x86-64_openmpi411/orca_util_mpi oby_singlet_opt_uks_r2scan_3c_brsym orca_cleanup oby_singlet_opt_uks_r2scan_3c_brsym
MPIWRAPPER OUT -n 12 /gpfs/research/software/orca/orca_5_0_1_linux_x86-64_openmpi411/orca_util_mpi oby_singlet_opt_uks_r2scan_3c_brsym orca_cleanup oby_singlet_opt_uks_r2scan_3c_brsym

Timings for individual modules:

Sum of individual times         ...     7070.590 sec (= 117.843 min)
GTO integral calculation        ...      324.168 sec (=   5.403 min)   4.6 %
SCF iterations                  ...     5865.181 sec (=  97.753 min)  83.0 %
SCF Gradient evaluation         ...      870.318 sec (=  14.505 min)  12.3 %
Geometry relaxation             ...       10.923 sec (=   0.182 min)   0.2 %
                             ****ORCA TERMINATED NORMALLY****
TOTAL RUN TIME: 0 days 1 hours 58 minutes 6 seconds 163 msec
