
                                 *****************
                                 * O   R   C   A *
                                 *****************

                                            #,                                       
                                            ###                                      
                                            ####                                     
                                            #####                                    
                                            ######                                   
                                           ########,                                 
                                     ,,################,,,,,                         
                               ,,#################################,,                 
                          ,,##########################################,,             
                       ,#########################################, ''#####,          
                    ,#############################################,,   '####,        
                  ,##################################################,,,,####,       
                ,###########''''           ''''###############################       
              ,#####''   ,,,,##########,,,,          '''####'''          '####       
            ,##' ,,,,###########################,,,                        '##       
           ' ,,###''''                  '''############,,,                           
         ,,##''                                '''############,,,,        ,,,,,,###''
      ,#''                                            '''#######################'''  
     '                                                          ''''####''''         
             ,#######,   #######,   ,#######,      ##                                
            ,#'     '#,  ##    ##  ,#'     '#,    #''#        ######   ,####,        
            ##       ##  ##   ,#'  ##            #'  '#       #        #'  '#        
            ##       ##  #######   ##           ,######,      #####,   #    #        
            '#,     ,#'  ##    ##  '#,     ,#' ,#      #,         ##   #,  ,#        
             '#######'   ##     ##  '#######'  #'      '#     #####' # '####'        



                  #######################################################
                  #                        -***-                        #
                  #          Department of theory and spectroscopy      #
                  #    Directorship and core code : Frank Neese         #
                  #        Max Planck Institute fuer Kohlenforschung    #
                  #                Kaiser Wilhelm Platz 1               #
                  #                 D-45470 Muelheim/Ruhr               #
                  #                      Germany                        #
                  #                                                     #
                  #                  All rights reserved                #
                  #                        -***-                        #
                  #######################################################


                         Program Version 5.0.1 -  RELEASE  -


 With contributions from (in alphabetic order):
   Daniel Aravena         : Magnetic Suceptibility
   Michael Atanasov       : Ab Initio Ligand Field Theory (pilot matlab implementation)
   Alexander A. Auer      : GIAO ZORA, VPT2 properties, NMR spectrum
   Ute Becker             : Parallelization
   Giovanni Bistoni       : ED, misc. LED, open-shell LED, HFLD
   Martin Brehm           : Molecular dynamics
   Dmytro Bykov           : SCF Hessian
   Vijay G. Chilkuri      : MRCI spin determinant printing, contributions to CSF-ICE
   Dipayan Datta          : RHF DLPNO-CCSD density
   Achintya Kumar Dutta   : EOM-CC, STEOM-CC
   Dmitry Ganyushin       : Spin-Orbit,Spin-Spin,Magnetic field MRCI
   Miquel Garcia          : C-PCM and meta-GGA Hessian, CC/C-PCM, Gaussian charge scheme
   Yang Guo               : DLPNO-NEVPT2, F12-NEVPT2, CIM, IAO-localization
   Andreas Hansen         : Spin unrestricted coupled pair/coupled cluster methods
   Benjamin Helmich-Paris : MC-RPA, TRAH-SCF, COSX integrals
   Lee Huntington         : MR-EOM, pCC
   Robert Izsak           : Overlap fitted RIJCOSX, COSX-SCS-MP3, EOM
   Marcus Kettner         : VPT2
   Christian Kollmar      : KDIIS, OOCD, Brueckner-CCSD(T), CCSD density, CASPT2, CASPT2-K
   Simone Kossmann        : Meta GGA functionals, TD-DFT gradient, OOMP2, MP2 Hessian
   Martin Krupicka        : Initial AUTO-CI
   Lucas Lang             : DCDCAS
   Marvin Lechner         : AUTO-CI (C++ implementation), FIC-MRCC
   Dagmar Lenk            : GEPOL surface, SMD
   Dimitrios Liakos       : Extrapolation schemes; Compound Job, initial MDCI parallelization
   Dimitrios Manganas     : Further ROCIS development; embedding schemes
   Dimitrios Pantazis     : SARC Basis sets
   Anastasios Papadopoulos: AUTO-CI, single reference methods and gradients
   Taras Petrenko         : DFT Hessian,TD-DFT gradient, ASA, ECA, R-Raman, ABS, FL, XAS/XES, NRVS
   Peter Pinski           : DLPNO-MP2, DLPNO-MP2 Gradient
   Christoph Reimann      : Effective Core Potentials
   Marius Retegan         : Local ZFS, SOC
   Christoph Riplinger    : Optimizer, TS searches, QM/MM, DLPNO-CCSD(T), (RO)-DLPNO pert. Triples
   Tobias Risthaus        : Range-separated hybrids, TD-DFT gradient, RPA, STAB
   Michael Roemelt        : Original ROCIS implementation
   Masaaki Saitow         : Open-shell DLPNO-CCSD energy and density
   Barbara Sandhoefer     : DKH picture change effects
   Avijit Sen             : IP-ROCIS
   Kantharuban Sivalingam : CASSCF convergence, NEVPT2, FIC-MRCI
   Bernardo de Souza      : ESD, SOC TD-DFT
   Georgi Stoychev        : AutoAux, RI-MP2 NMR, DLPNO-MP2 response
   Willem Van den Heuvel  : Paramagnetic NMR
   Boris Wezisla          : Elementary symmetry handling
   Frank Wennmohs         : Technical directorship


 We gratefully acknowledge several colleagues who have allowed us to
 interface, adapt or use parts of their codes:
   Stefan Grimme, W. Hujo, H. Kruse, P. Pracht,  : VdW corrections, initial TS optimization,
                  C. Bannwarth, S. Ehlert          DFT functionals, gCP, sTDA/sTD-DF
   Ed Valeev, F. Pavosevic, A. Kumar             : LibInt (2-el integral package), F12 methods
   Garnet Chan, S. Sharma, J. Yang, R. Olivares  : DMRG
   Ulf Ekstrom                                   : XCFun DFT Library
   Mihaly Kallay                                 : mrcc  (arbitrary order and MRCC methods)
   Jiri Pittner, Ondrej Demel                    : Mk-CCSD
   Frank Weinhold                                : gennbo (NPA and NBO analysis)
   Christopher J. Cramer and Donald G. Truhlar   : smd solvation model
   Lars Goerigk                                  : TD-DFT with DH, B97 family of functionals
   V. Asgeirsson, H. Jonsson                     : NEB implementation
   FAccTs GmbH                                   : IRC, NEB, NEB-TS, DLPNO-Multilevel, CI-OPT
                                                   MM, QMMM, 2- and 3-layer-ONIOM, Crystal-QMMM,
                                                   LR-CPCM, SF, NACMEs, symmetry and pop. for TD-DFT,
                                                   nearIR, NL-DFT gradient (VV10), updates on ESD,
                                                   ML-optimized integration grids
   S Lehtola, MJT Oliveira, MAL Marques          : LibXC Library
   Liviu Ungur et al                             : ANISO software


 Your calculation uses the libint2 library for the computation of 2-el integrals
 For citations please refer to: http://libint.valeyev.net

 Your ORCA version has been built with support for libXC version: 5.1.0
 For citations please refer to: https://tddft.org/programs/libxc/

 This ORCA versions uses:
   CBLAS   interface :  Fast vector & matrix operations
   LAPACKE interface :  Fast linear algebra routines
   SCALAPACK package :  Parallel linear algebra routines
   Shared memory     :  Shared parallel matrices
   BLAS/LAPACK       :  OpenBLAS 0.3.15  USE64BITINT DYNAMIC_ARCH NO_AFFINITY Sandybridge SINGLE_THREADED
        Core in use  :  Sandybridge
   Copyright (c) 2011-2014, The OpenBLAS Project


XCFun DFT library Copyright 2009-2010 Ulf Ekstrom and contributors.
See http://admol.org/xcfun for more information.
This is free software; see the source code for copying conditions.
There is ABSOLUTELY NO WARRANTY; not even for MERCHANTABILITY or FITNESS FOR A PARTICULAR PURPOSE.
For details see the documentation.
Scientific users of this library should cite U. Ekstrom, L. Visscher, R. Bast, A. J. Thorvaldsen and K. Ruud;
J.Chem.Theor.Comp. 2010, DOI: 10.1021/ct100117s
XCFun Version 0.99 

================================================================================

----- Orbital basis set information -----
Your calculation utilizes the basis: 6-31G(d,p)
   H-He, Li-Ne : W. J. Hehre, R. Ditchfield and J.A. Pople, J. Chem. Phys. 56, 2257 (1972).
                 Note: He and Ne are unpublished basis sets taken from the Gaussian program.
                 Note: Li and B from J. D. Dill and J. A. Pople, J. Chem. Phys. 62, 2921 (1975).
   Na - Ar     : M. M. Francl, W. J. Pietro, W. J. Hehre, J. S. Binkley, M. S. Gordon, 
                 D. J. DeFrees and J. A. Pople, J. Chem. Phys. 77, 3654 (1982).
   K - Zn      : V. A. Rassolov, J. A. Pople, M. A. Ratner, and T. L. Windus, J. Chem. Phys. 109, 1223 (1998).

----- AuxJ basis set information -----
Your calculation utilizes the AutoAux generation procedure.
  G. L. Stoychev, A. A. Auer, F. Neese, J. Chem. Theory Comput. 13, 554 (2017)

----- AuxC basis set information -----
Your calculation utilizes the AutoAux generation procedure.
  G. L. Stoychev, A. A. Auer, F. Neese, J. Chem. Theory Comput. 13, 554 (2017)

----- AuxJK basis set information -----
Your calculation utilizes the AutoAux generation procedure.
  G. L. Stoychev, A. A. Auer, F. Neese, J. Chem. Theory Comput. 13, 554 (2017)

================================================================================
                                        WARNINGS
                       Please study these warnings very carefully!
================================================================================

WARNING: Old DensityContainer found on disk!
         Will remove this file - 
         If you want to keep old densities, please start your calculation with a different basename. 


WARNING: Broken symmetry calculations need fully converged wavefunctions
  ===> : Setting SCFConvForced true
         You can overwrite this default with %scf ConvForced false 


INFO   : the flag for use of the SHARK integral package has been found!

================================================================================
                                       INPUT FILE
================================================================================
NAME = oby_singlet_uks_cam_b3lyp_631gdp_brsym.inp
|  1> !UKS CAM-B3LYP 6-31G(d,p) AUTOAUX FREQ RIJCOSX UNO
|  2> %MaxCore 3000
|  3> %pal
|  4>  nprocs 8
|  5> end
|  6> %scf
|  7>    Brokensym 1,1
|  8> end
|  9> * XYZ 0  1
| 10>   C     -4.029854   -1.480019   -0.113807
| 11>   C     -3.037640    1.905092   -1.520645
| 12>   C     -3.195578    3.134132   -0.882400
| 13>   H     -3.931956    3.233309   -0.090717
| 14>   C     -2.423409    4.235122   -1.241844
| 15>   H     -2.587253    5.169688   -0.718654
| 16>   C     -1.464066    4.152568   -2.251970
| 17>   H     -5.703915   -8.160487    1.771129
| 18>   C     -1.308810    2.912750   -2.882505
| 19>   H     -0.576612    2.798559   -3.675534
| 20>   C     -2.073787    1.812535   -2.527204
| 21>   H     -1.925369    0.866697   -3.037878
| 22>   C     -6.414414   -4.800241    1.331151
| 23>   C     -5.412330   -1.507001   -0.258263
| 24>   C     -6.041214   -0.400142   -0.888678
| 25>   C     -7.458786   -0.385797   -1.096896
| 26>   C     -5.267546    0.714083   -1.329972
| 27>   C     -5.924867    1.786196   -1.991899
| 28>   C     -3.859859    0.728048   -1.127700
| 29>   H     -3.503854   -2.305327    0.346459
| 30>   C     -3.256878   -0.386807   -0.536302
| 31>   C     -1.845884   -0.427378   -0.317266
| 32>   H     -5.993974   -6.975734    3.991869
| 33>   C     -7.808927   -4.751793    1.116831
| 34>   C     -8.395007   -3.689326    0.480062
| 35>   H     -9.467755   -3.669055    0.326564
| 36>   C     -7.626149   -2.599359    0.013197
| 37>   H     -7.199471   -7.446336    1.160686
| 38>   C     -6.226008   -2.626441    0.213029
| 39>   C      0.701144   -0.418438    0.087106
| 40>   C     -5.661286   -3.735192    0.871712
| 41>   H     -4.592770   -3.751914    1.029019
| 42>   C     -8.242083   -1.486573   -0.646547
| 43>   C     -8.047660    0.710659   -1.744198
| 44>   C     -6.123159   -7.286750    1.262247
| 45>   C     -9.645743   -1.480599   -0.848657
| 46>   C     -7.290545    1.791906   -2.200668
| 47>   H     -5.329252    2.616260   -2.351208
| 48>   H     -9.121679    0.704042   -1.895539
| 49>   C     -7.964347    2.933023   -2.916468
| 50>   H     -0.239971    4.010268    5.334835
| 51>   C     -0.021392    4.957238    4.833317
| 52>   H     -0.772282    5.682858    5.158640
| 53>   H     -0.542642    6.925984    3.047777
| 54>   C      0.196826    6.202108    2.690657
| 55>   C     -1.476869    4.339874    2.910544
| 56>   H      0.139299    6.178926    1.599482
| 57>   H      1.190724    6.568406    2.963949
| 58>   H      0.953623    5.312345    5.179654
| 59>   H     -5.695913   -7.241200    0.256485
| 60>   H      8.396671    4.087001    2.243897
| 61>   H      8.256025    3.247599    3.785552
| 62>   H      6.915978    4.240921    3.198239
| 63>   C     -0.614333    5.348947   -2.696100
| 64>   C      0.880370    5.017626   -2.535285
| 65>   H      1.168127    4.139568   -3.118681
| 66>   H      1.493116    5.857971   -2.876536
| 67>   C     -0.908660    5.653601   -4.176377
| 68>   H      1.132751    4.822160   -1.489023
| 69>   H     -0.310933    6.505477   -4.515883
| 70>   C     -0.916148    6.611886   -1.880377
| 71>   H     -0.672446    4.802725   -4.820151
| 72>   H     -1.964563    5.899157   -4.321839
| 73>   H     -6.190419   -5.216126    4.053011
| 74>   H     -0.284886    7.433793   -2.229444
| 75>   H     -1.957800    6.927476   -1.988379
| 76>   H     -0.711574    6.469338   -0.814978
| 77>   C     -5.804055   -6.004731    2.053336
| 78>   C     -4.281482   -5.895005    2.192734
| 79>   H     -3.786884   -5.847145    1.218228
| 80>   H     -3.986990   -5.014855    2.771694
| 81>   C     -6.410333   -6.111533    3.464787
| 82>   H     -3.896527   -6.775729    2.714288
| 83>   H     -7.495997   -6.232202    3.433893
| 84>   H    -11.896322   -1.469489   -1.173159
| 85>   C    -10.841673   -1.474388   -1.021355
| 86>   C     10.956411   -0.527400    0.865433
| 87>   H     12.007638   -0.429004    1.008852
| 88>   H      6.411325   -7.532643   -2.178952
| 89>   C      4.169994   -1.121405   -0.038454
| 90>   C      2.845256    1.963303    1.731867
| 91>   C      1.996260    2.686611    0.889772
| 92>   H      2.047115    2.530613   -0.182724
| 93>   C      1.079335    3.587097    1.406581
| 94>   H      0.423620    4.108635    0.716769
| 95>   C      0.969354    3.817624    2.782661
| 96>   H      4.307496   -5.399815   -1.607259
| 97>   C      1.822416    3.096445    3.617195
| 98>   H      1.775824    3.228716    4.691440
| 99>   C      2.740575    2.184735    3.104088
|100>   H      3.376518    1.627321    3.784950
|101>   C      6.846859   -4.143389   -1.623695
|102>   C      5.548335   -1.038099    0.124447
|103>   C      6.072165    0.080100    0.827008
|104>   C      7.484931    0.225249    1.019009
|105>   C      5.198206    1.081690    1.346456
|106>   C      5.762257    2.207987    2.004762
|107>   C      3.791284    0.957174    1.177646
|108>   H      3.723304   -1.954281   -0.564394
|109>   C      3.298292   -0.148328    0.473824
|110>   C      1.894166   -0.315037    0.269839
|111>   H      7.833552   -6.722033   -1.514718
|112>   C      8.231009   -3.979202   -1.399844
|113>   C      8.717640   -2.898064   -0.712950
|114>   H      9.784001   -2.787545   -0.553629
|115>   C      7.852629   -1.905715   -0.199068
|116>   H      4.476187   -4.493862   -3.122789
|117>   C      6.460535   -2.051105   -0.404073
|118>   H     -8.436985   -5.566711    1.461301
|119>   C      5.999693   -3.174424   -1.117583
|120>   H      4.937006   -3.283396   -1.277961
|121>   C      8.365446   -0.771611    0.510494
|122>   C      7.974602    1.349868    1.699908
|123>   C      4.825439   -5.371026   -2.570250
|124>   C      9.764421   -0.639681    0.702138
|125>   C      7.124812    2.345541    2.186213
|126>   H      5.097830    2.983209    2.365634
|127>   H      9.046505    1.443959    1.836711
|128>   C      7.699986    3.545654    2.891199
|129>   C      6.990633   -5.384521   -3.797474
|130>   C      6.348599   -5.367370   -2.397832
|131>   H      6.716471   -4.490625   -4.364834
|132>   C      6.750199   -6.644352   -1.636407
|133>   H      8.081363   -5.425294   -3.746117
|134>   H      8.930812   -4.717961   -1.776300
|135>   H     -2.231798    5.049058    3.265612
|136>   H      6.651930   -6.260714   -4.359254
|137>   C     -0.650441   -0.456373   -0.123478
|138>   H      4.522077   -6.258066   -3.133343
|139>   H     -1.585833    4.245971    1.827119
|140>   H      6.299994   -6.661763   -0.639849
|141>   H     -1.694474    3.362584    3.350792
|142>   C     -0.067907    4.816782    3.307352
|143>   H     -7.254807    3.728089   -3.154705
|144>   H     -8.419129    2.595897   -3.853282
|145>   H     -8.764114    3.364051   -2.306784
|146>  * 
|147> 
|148> 
|149> 
|150>                          ****END OF INPUT****
================================================================================

                       ****************************
                       * Single Point Calculation *
                       ****************************

---------------------------------
CARTESIAN COORDINATES (ANGSTROEM)
---------------------------------
  C     -4.029854   -1.480019   -0.113807
  C     -3.037640    1.905092   -1.520645
  C     -3.195578    3.134132   -0.882400
  H     -3.931956    3.233309   -0.090717
  C     -2.423409    4.235122   -1.241844
  H     -2.587253    5.169688   -0.718654
  C     -1.464066    4.152568   -2.251970
  H     -5.703915   -8.160487    1.771129
  C     -1.308810    2.912750   -2.882505
  H     -0.576612    2.798559   -3.675534
  C     -2.073787    1.812535   -2.527204
  H     -1.925369    0.866697   -3.037878
  C     -6.414414   -4.800241    1.331151
  C     -5.412330   -1.507001   -0.258263
  C     -6.041214   -0.400142   -0.888678
  C     -7.458786   -0.385797   -1.096896
  C     -5.267546    0.714083   -1.329972
  C     -5.924867    1.786196   -1.991899
  C     -3.859859    0.728048   -1.127700
  H     -3.503854   -2.305327    0.346459
  C     -3.256878   -0.386807   -0.536302
  C     -1.845884   -0.427378   -0.317266
  H     -5.993974   -6.975734    3.991869
  C     -7.808927   -4.751793    1.116831
  C     -8.395007   -3.689326    0.480062
  H     -9.467755   -3.669055    0.326564
  C     -7.626149   -2.599359    0.013197
  H     -7.199471   -7.446336    1.160686
  C     -6.226008   -2.626441    0.213029
  C      0.701144   -0.418438    0.087106
  C     -5.661286   -3.735192    0.871712
  H     -4.592770   -3.751914    1.029019
  C     -8.242083   -1.486573   -0.646547
  C     -8.047660    0.710659   -1.744198
  C     -6.123159   -7.286750    1.262247
  C     -9.645743   -1.480599   -0.848657
  C     -7.290545    1.791906   -2.200668
  H     -5.329252    2.616260   -2.351208
  H     -9.121679    0.704042   -1.895539
  C     -7.964347    2.933023   -2.916468
  H     -0.239971    4.010268    5.334835
  C     -0.021392    4.957238    4.833317
  H     -0.772282    5.682858    5.158640
  H     -0.542642    6.925984    3.047777
  C      0.196826    6.202108    2.690657
  C     -1.476869    4.339874    2.910544
  H      0.139299    6.178926    1.599482
  H      1.190724    6.568406    2.963949
  H      0.953623    5.312345    5.179654
  H     -5.695913   -7.241200    0.256485
  H      8.396671    4.087001    2.243897
  H      8.256025    3.247599    3.785552
  H      6.915978    4.240921    3.198239
  C     -0.614333    5.348947   -2.696100
  C      0.880370    5.017626   -2.535285
  H      1.168127    4.139568   -3.118681
  H      1.493116    5.857971   -2.876536
  C     -0.908660    5.653601   -4.176377
  H      1.132751    4.822160   -1.489023
  H     -0.310933    6.505477   -4.515883
  C     -0.916148    6.611886   -1.880377
  H     -0.672446    4.802725   -4.820151
  H     -1.964563    5.899157   -4.321839
  H     -6.190419   -5.216126    4.053011
  H     -0.284886    7.433793   -2.229444
  H     -1.957800    6.927476   -1.988379
  H     -0.711574    6.469338   -0.814978
  C     -5.804055   -6.004731    2.053336
  C     -4.281482   -5.895005    2.192734
  H     -3.786884   -5.847145    1.218228
  H     -3.986990   -5.014855    2.771694
  C     -6.410333   -6.111533    3.464787
  H     -3.896527   -6.775729    2.714288
  H     -7.495997   -6.232202    3.433893
  H    -11.896322   -1.469489   -1.173159
  C    -10.841673   -1.474388   -1.021355
  C     10.956411   -0.527400    0.865433
  H     12.007638   -0.429004    1.008852
  H      6.411325   -7.532643   -2.178952
  C      4.169994   -1.121405   -0.038454
  C      2.845256    1.963303    1.731867
  C      1.996260    2.686611    0.889772
  H      2.047115    2.530613   -0.182724
  C      1.079335    3.587097    1.406581
  H      0.423620    4.108635    0.716769
  C      0.969354    3.817624    2.782661
  H      4.307496   -5.399815   -1.607259
  C      1.822416    3.096445    3.617195
  H      1.775824    3.228716    4.691440
  C      2.740575    2.184735    3.104088
  H      3.376518    1.627321    3.784950
  C      6.846859   -4.143389   -1.623695
  C      5.548335   -1.038099    0.124447
  C      6.072165    0.080100    0.827008
  C      7.484931    0.225249    1.019009
  C      5.198206    1.081690    1.346456
  C      5.762257    2.207987    2.004762
  C      3.791284    0.957174    1.177646
  H      3.723304   -1.954281   -0.564394
  C      3.298292   -0.148328    0.473824
  C      1.894166   -0.315037    0.269839
  H      7.833552   -6.722033   -1.514718
  C      8.231009   -3.979202   -1.399844
  C      8.717640   -2.898064   -0.712950
  H      9.784001   -2.787545   -0.553629
  C      7.852629   -1.905715   -0.199068
  H      4.476187   -4.493862   -3.122789
  C      6.460535   -2.051105   -0.404073
  H     -8.436985   -5.566711    1.461301
  C      5.999693   -3.174424   -1.117583
  H      4.937006   -3.283396   -1.277961
  C      8.365446   -0.771611    0.510494
  C      7.974602    1.349868    1.699908
  C      4.825439   -5.371026   -2.570250
  C      9.764421   -0.639681    0.702138
  C      7.124812    2.345541    2.186213
  H      5.097830    2.983209    2.365634
  H      9.046505    1.443959    1.836711
  C      7.699986    3.545654    2.891199
  C      6.990633   -5.384521   -3.797474
  C      6.348599   -5.367370   -2.397832
  H      6.716471   -4.490625   -4.364834
  C      6.750199   -6.644352   -1.636407
  H      8.081363   -5.425294   -3.746117
  H      8.930812   -4.717961   -1.776300
  H     -2.231798    5.049058    3.265612
  H      6.651930   -6.260714   -4.359254
  C     -0.650441   -0.456373   -0.123478
  H      4.522077   -6.258066   -3.133343
  H     -1.585833    4.245971    1.827119
  H      6.299994   -6.661763   -0.639849
  H     -1.694474    3.362584    3.350792
  C     -0.067907    4.816782    3.307352
  H     -7.254807    3.728089   -3.154705
  H     -8.419129    2.595897   -3.853282
  H     -8.764114    3.364051   -2.306784

----------------------------
CARTESIAN COORDINATES (A.U.)
----------------------------
  NO LB      ZA    FRAG     MASS         X           Y           Z
   0 C     6.0000    0    12.011   -7.615320   -2.796831   -0.215064
   1 C     6.0000    0    12.011   -5.740308    3.600102   -2.873603
   2 C     6.0000    0    12.011   -6.038767    5.922651   -1.667494
   3 H     1.0000    0     1.008   -7.430320    6.110069   -0.171430
   4 C     6.0000    0    12.011   -4.579579    8.003221   -2.346745
   5 H     1.0000    0     1.008   -4.889200    9.769295   -1.358059
   6 C     6.0000    0    12.011   -2.766684    7.847216   -4.255607
   7 H     1.0000    0     1.008  -10.778837  -15.421086    3.346949
   8 C     6.0000    0    12.011   -2.473292    5.504300   -5.447145
   9 H     1.0000    0     1.008   -1.089639    5.288510   -6.945753
  10 C     6.0000    0    12.011   -3.918889    3.425195   -4.775723
  11 H     1.0000    0     1.008   -3.638420    1.637820   -5.740757
  12 C     6.0000    0    12.011  -12.121486   -9.071141    2.515511
  13 C     6.0000    0    12.011  -10.227821   -2.847819   -0.488046
  14 C     6.0000    0    12.011  -11.416240   -0.756159   -1.679358
  15 C     6.0000    0    12.011  -14.095063   -0.729051   -2.072833
  16 C     6.0000    0    12.011   -9.954219    1.349421   -2.513283
  17 C     6.0000    0    12.011  -11.196376    3.375421   -3.764144
  18 C     6.0000    0    12.011   -7.294076    1.375811   -2.131044
  19 H     1.0000    0     1.008   -6.621324   -4.356437    0.654713
  20 C     6.0000    0    12.011   -6.154607   -0.730959   -1.013464
  21 C     6.0000    0    12.011   -3.488215   -0.807627   -0.599546
  22 H     1.0000    0     1.008  -11.326969  -13.182227    7.543539
  23 C     6.0000    0    12.011  -14.756733   -8.979587    2.110505
  24 C     6.0000    0    12.011  -15.864264   -6.971816    0.907186
  25 H     1.0000    0     1.008  -17.891464   -6.933509    0.617117
  26 C     6.0000    0    12.011  -14.411333   -4.912077    0.024939
  27 H     1.0000    0     1.008  -13.605028  -14.071536    2.193379
  28 C     6.0000    0    12.011  -11.765450   -4.963254    0.402566
  29 C     6.0000    0    12.011    1.324970   -0.790733    0.164606
  30 C     6.0000    0    12.011  -10.698280   -7.058490    1.647297
  31 H     1.0000    0     1.008   -8.679077   -7.090090    1.944564
  32 C     6.0000    0    12.011  -15.575280   -2.809216   -1.221797
  33 C     6.0000    0    12.011  -15.207873    1.342951   -3.296057
  34 C     6.0000    0    12.011  -11.571094  -13.769962    2.385301
  35 C     6.0000    0    12.011  -18.227813   -2.797927   -1.603729
  36 C     6.0000    0    12.011  -13.777133    3.386212   -4.158660
  37 H     1.0000    0     1.008  -10.070827    4.944015   -4.443139
  38 H     1.0000    0     1.008  -17.237475    1.330447   -3.582050
  39 C     6.0000    0    12.011  -15.050435    5.542610   -5.511326
  40 H     1.0000    0     1.008   -0.453479    7.578308   10.081377
  41 C     6.0000    0    12.011   -0.040425    9.367822    9.133645
  42 H     1.0000    0     1.008   -1.459401   10.739045    9.748417
  43 H     1.0000    0     1.008   -1.025445   13.088213    5.759464
  44 C     6.0000    0    12.011    0.371947   11.720286    5.084605
  45 C     6.0000    0    12.011   -2.790878    8.201173    5.500131
  46 H     1.0000    0     1.008    0.263237   11.676478    3.022583
  47 H     1.0000    0     1.008    2.250142   12.412488    5.601052
  48 H     1.0000    0     1.008    1.802086   10.038877    9.788128
  49 H     1.0000    0     1.008  -10.763716  -13.683885    0.484686
  50 H     1.0000    0     1.008   15.867409    7.723313    4.240351
  51 H     1.0000    0     1.008   15.601626    6.137073    7.153657
  52 H     1.0000    0     1.008   13.069304    8.014179    6.043796
  53 C     6.0000    0    12.011   -1.160921   10.108045   -5.094891
  54 C     6.0000    0    12.011    1.663658    9.481939   -4.790994
  55 H     1.0000    0     1.008    2.207440    7.822650   -5.893453
  56 H     1.0000    0     1.008    2.821580   11.069961   -5.435865
  57 C     6.0000    0    12.011   -1.717119   10.683758   -7.892209
  58 H     1.0000    0     1.008    2.140589    9.112562   -2.813846
  59 H     1.0000    0     1.008   -0.587578   12.293570   -8.533782
  60 C     6.0000    0    12.011   -1.731269   12.494654   -3.553398
  61 H     1.0000    0     1.008   -1.270739    9.075835   -9.108765
  62 H     1.0000    0     1.008   -3.712486   11.147791   -8.167092
  63 H     1.0000    0     1.008  -11.698197   -9.857050    7.659081
  64 H     1.0000    0     1.008   -0.538357   14.047833   -4.213039
  65 H     1.0000    0     1.008   -3.699706   13.091032   -3.757492
  66 H     1.0000    0     1.008   -1.344680   12.225277   -1.540085
  67 C     6.0000    0    12.011  -10.968074  -11.347297    3.880243
  68 C     6.0000    0    12.011   -8.090828  -11.139945    4.143667
  69 H     1.0000    0     1.008   -7.156174  -11.049503    2.302117
  70 H     1.0000    0     1.008   -7.534319   -9.476703    5.237743
  71 C     6.0000    0    12.011  -12.113774  -11.549124    6.547499
  72 H     1.0000    0     1.008   -7.363369  -12.804272    5.129261
  73 H     1.0000    0     1.008  -14.165381  -11.777155    6.489117
  74 H     1.0000    0     1.008  -22.480791   -2.776932   -2.216949
  75 C     6.0000    0    12.011  -20.487793   -2.786190   -1.930081
  76 C     6.0000    0    12.011   20.704616   -0.996642    1.635431
  77 H     1.0000    0     1.008   22.691147   -0.810700    1.906454
  78 H     1.0000    0     1.008   12.115648  -14.234632   -4.117623
  79 C     6.0000    0    12.011    7.880147   -2.119148   -0.072668
  80 C     6.0000    0    12.011    5.376755    3.710105    3.272754
  81 C     6.0000    0    12.011    3.772385    5.076959    1.681425
  82 H     1.0000    0     1.008    3.868487    4.782166   -0.345298
  83 C     6.0000    0    12.011    2.039648    6.778631    2.658053
  84 H     1.0000    0     1.008    0.800526    7.764195    1.354497
  85 C     6.0000    0    12.011    1.831814    7.214264    5.258467
  86 H     1.0000    0     1.008    8.139988  -10.204172   -3.037279
  87 C     6.0000    0    12.011    3.443867    5.851433    6.835508
  88 H     1.0000    0     1.008    3.355821    6.101389    8.865537
  89 C     6.0000    0    12.011    5.178936    4.128551    5.865876
  90 H     1.0000    0     1.008    6.380694    3.075191    7.152519
  91 C     6.0000    0    12.011   12.938688   -7.829870   -3.068339
  92 C     6.0000    0    12.011   10.484834   -1.961723    0.235171
  93 C     6.0000    0    12.011   11.474729    0.151367    1.562819
  94 C     6.0000    0    12.011   14.144470    0.425659    1.925648
  95 C     6.0000    0    12.011    9.823186    2.044098    2.544433
  96 C     6.0000    0    12.011   10.889088    4.172491    3.788451
  97 C     6.0000    0    12.011    7.164488    1.808797    2.225428
  98 H     1.0000    0     1.008    7.036025   -3.693056   -1.066550
  99 C     6.0000    0    12.011    6.232869   -0.280299    0.895398
 100 C     6.0000    0    12.011    3.579455   -0.595334    0.509922
 101 H     1.0000    0     1.008   14.803268  -12.702801   -2.862402
 102 C     6.0000    0    12.011   15.554353   -7.519602   -2.645322
 103 C     6.0000    0    12.011   16.473952   -5.476547   -1.347280
 104 H     1.0000    0     1.008   18.489082   -5.267697   -1.046207
 105 C     6.0000    0    12.011   14.839318   -3.601279   -0.376184
 106 H     1.0000    0     1.008    8.458768   -8.492168   -5.901216
 107 C     6.0000    0    12.011   12.208642   -3.876027   -0.763587
 108 H     1.0000    0     1.008  -15.943591  -10.519559    2.761459
 109 C     6.0000    0    12.011   11.337777   -5.998792   -2.111926
 110 H     1.0000    0     1.008    9.329589   -6.204719   -2.414996
 111 C     6.0000    0    12.011   15.808402   -1.458133    0.964694
 112 C     6.0000    0    12.011   15.069814    2.550881    3.212361
 113 C     6.0000    0    12.011    9.118758  -10.149768   -4.857069
 114 C     6.0000    0    12.011   18.452082   -1.208822    1.326849
 115 C     6.0000    0    12.011   13.463943    4.432430    4.131344
 116 H     1.0000    0     1.008    9.633503    5.637448    4.470400
 117 H     1.0000    0     1.008   17.095417    2.728687    3.470881
 118 C     6.0000    0    12.011   14.550865    6.700315    5.463574
 119 C     6.0000    0    12.011   13.210382  -10.175270   -7.176186
 120 C     6.0000    0    12.011   11.997113  -10.142859   -4.531246
 121 H     1.0000    0     1.008   12.692291   -8.486051   -8.248341
 122 C     6.0000    0    12.011   12.756027  -12.556006   -3.092361
 123 H     1.0000    0     1.008   15.271563  -10.252320   -7.079135
 124 H     1.0000    0     1.008   16.876789   -8.915654   -3.356721
 125 H     1.0000    0     1.008   -4.217487    9.541337    6.171112
 126 H     1.0000    0     1.008   12.570326  -11.831035   -8.237796
 127 C     6.0000    0    12.011   -1.229155   -0.862420   -0.233340
 128 H     1.0000    0     1.008    8.545487  -11.826031   -5.921160
 129 H     1.0000    0     1.008   -2.996790    8.023722    3.452755
 130 H     1.0000    0     1.008   11.905263  -12.588908   -1.209139
 131 H     1.0000    0     1.008   -3.202092    6.354363    6.332079
 132 C     6.0000    0    12.011   -0.128326    9.102399    6.249990
 133 H     1.0000    0     1.008  -13.709598    7.045067   -5.961528
 134 H     1.0000    0     1.008  -15.909848    4.905534   -7.281648
 135 H     1.0000    0     1.008  -16.561775    6.357135   -4.359190

--------------------------------
INTERNAL COORDINATES (ANGSTROEM)
--------------------------------
 C      0   0   0     0.000000000000     0.00000000     0.00000000
 C      1   0   0     3.797717506919     0.00000000     0.00000000
 C      2   1   0     1.393858103779   125.92500792     0.00000000
 H      3   2   1     1.085748869998   119.42427006   338.03501355
 C      3   2   1     1.391985608330   121.08616841   157.92632707
 H      5   3   2     1.083506456276   118.27166480   179.72728758
 C      5   3   2     1.395531687365   121.43024254     0.00000000
 H      1   2   3     7.140316285350   173.21431858   172.71146585
 C      7   5   3     1.399581181956   117.04937794   359.70583014
 H      9   7   5     1.085379422380   119.81500563   179.89381442
 C      9   7   5     1.386326677719   121.75933301     0.20110650
 H     11   9   7     1.085092327521   119.71451867   180.03004192
 C      8   1   2     3.462606337717    26.69938064   237.33517269
 C      1   2   3     1.390264526929   103.80454075    76.16987714
 C     14   1   2     1.420582628206   118.11240898     2.59224490
 C     15  14   1     1.432854106227   120.68121729   178.39354427
 C     15  14   1     1.426464131791   120.38390350   358.65704629
 C     17  15  14     1.421141982752   118.84891857   178.16781480
 C     17  15  14     1.422213652437   120.03303202   359.34971303
 H      1   2   3     1.081505471840   135.29884132   258.24172498
 C     19  17  15     1.398656266489   118.62148077     2.27038859
 C     21  19  17     1.428470105873   120.88485758   179.65008436
 H      8   1  20     2.533665337429    79.67285144    82.66210505
 C     13   8   1     1.411717669463   104.79051560   153.11731812
 C     24  13   8     1.370328665631   121.30777371   201.88133637
 H     25  24  13     1.083863838750   120.23955264   180.13197797
 C     25  24  13     1.413199778332   121.25337186   359.96715221
 H      8   1  20     1.766165353580    74.27488979   176.62899686
 C     27  25  24     1.414588662060   118.49381037     0.19605440
 C     22  21  19     2.578943246907   178.16324781    30.35779348
 C     13   8   1     1.382973373390   132.67354924     0.00000000
 H     31  13   8     1.080162746899   118.58075040   330.29203295
 C     16  15  14     1.424105408383   119.37138633     0.96061616
 C     16  15  14     1.402850037251   119.35173113   181.15476287
 C     28   8   1     1.092808240022    36.18916344     8.74835788
 C     33  16  15     1.418148629861   119.74121526   180.00545282
 C     18  17  15     1.381554739829   122.05385735     1.09196176
 H     18  17  15     1.082989579729   118.57890700   181.79241761
 H     34  16  15     1.084649572595   118.37687919   179.86346389
 C     37  18  17     1.506162933714   121.14254035   180.59138832
 H      6   5   3     6.595355683892   103.75373662    70.09601034
 C     41   6   5     1.093640372547    59.86847816   137.01611718
 H     42  41   6     1.093707104681   107.50880730    94.38486391
 H     43  42  41     2.460455117706    90.91323992   207.63591031
 C     44  43  42     1.094689033836    90.50573119     1.05946271
 C     42  41   6     2.489298619201    91.29535680     4.40456556
 H     45  44  43     1.092936247673   107.70849965   151.63596271
 H     45  44  43     1.093936002000   108.10816661   267.77479146
 H     42  41   6     1.093939920308   108.30231686   210.38104586
 H     35  28   8     1.093696094745   107.78015798   116.43967205
 H     48  45  44     7.655162821491   136.31926113   178.22672741
 H     51  48  45     1.760987550764    89.82717255   270.93604747
 H     51  48  45     1.768307603222    29.86599449   264.93706509
 C      7   5   3     1.533173290868   122.99174712   178.71523108
 C     54   7   5     1.539406420499   109.87248827   122.12807142
 H     55  54   7     1.092767511975   111.89142730    58.71528093
 H     55  54   7     1.094572804587   110.22703937   178.45805770
 C     54   7   5     1.539695567109   109.08408991   241.78531708
 H     55  54   7     1.093877186416   111.24759139   298.02387767
 H     58  54   7     1.094639031800   110.35198769   180.05605176
 C     54   7   5     1.533463799597   112.30205718     1.61433471
 H     58  54   7     1.092809216766   111.77637609   299.97137099
 H     58  54   7     1.093795267858   110.90465369    60.25671365
 H     23   8   1     1.771595127520   120.48978565    18.65892659
 H     61  54   7     1.093558686026   109.60806600   179.74531430
 H     61  54   7     1.093755168769   111.87311184   298.93872813
 H     61  54   7     1.094187133438   111.95384213    60.54443403
 C     13   8   1     1.531301878535    25.17137798   282.56358009
 C     68  13   8     1.532873164293   112.48821220   120.63788982
 H     69  68  13     1.093882857184   111.79136414   299.03040496
 H     69  68  13     1.093884930952   111.90905111    60.76282307
 C     64  23   8     1.093674237248    35.95871111    33.78968201
 H     69  68  13     1.093564671666   109.59532866   179.92849510
 H     72  64  23     1.092786240622   107.78090656   116.18033427
 H     36  33  16     2.273880123345   179.95984632   349.28710593
 C     75  36  33     1.065529430761     0.02160031    24.05795194
 C     51  48  45     5.453909465301   137.71651553   348.33552062
 H     77  51  48     1.065518178121   110.54202839   186.06023409
 H     77  51  48     8.888167205036   120.89075991     6.64019134
 C     30  22  21     3.541588378001   163.96507136   216.89660280
 C     30  22  21     3.602102886752   131.43426480    22.32844939
 C     81  30  22     1.397530915545    72.87092461   314.00712802
 H     82  81  30     1.084974320915   119.52078477   296.68149513
 C     82  81  30     1.385177979287   120.91600751   115.85224722
 H     84  82  81     1.085267083262   118.37304878   181.47907765
 C     84  82  81     1.399583754010   121.73070177     0.44207423
 H     79  77  51     3.049899117196    74.77388965   359.29934194
 C     86  84  82     1.394367570994   117.07699006   359.79611019
 H     88  86  84     1.083359936462   120.26559227   180.48772890
 C     88  86  84     1.391944634973   121.44597422   359.83636371
 H     90  88  86     1.085682702123   119.43842892   181.12036437
 C     87  79  77     2.833238585319    71.98747060    14.82485881
 C     80  30  22     1.390431781037   162.72658643   166.84631789
 C     93  80  30     1.420689561876   118.07347826     0.12054666
 C     94  93  80     1.433122600114   120.62705510   180.40743822
 C     94  93  80     1.427169606769   120.43599892     0.04119851
 C     96  94  93     1.421289995900   118.79633846   182.06830746
 C     96  94  93     1.422473396742   120.06959391     0.78836803
 H     80  30  22     1.081585535719    76.44216040   346.85824772
 C     98  96  94     1.400193269428   118.48988876   358.78364424
 C     30  22  21     1.211356515884   175.29152796   350.03656270
 H     79  77  51     1.766642300633    25.56550291   194.98508818
 C     92  87  79     1.411714512099   158.34634548   322.36072716
 C    103  92  87     1.370216213756   121.29677899   234.63483525
 H    104 103  92     1.083846581728   120.23617465   180.19108086
 C    104 103  92     1.413179138625   121.26298762     0.12462272
 H     87  79  77     1.773707606284    97.55158734    82.55032797
 C    106 104 103     1.414599238994   118.52188801     0.20929566
 H     24  13   8     1.084992064021   119.85652234    21.99037389
 C     92  87  79     1.383015820345    76.08742543   190.80220086
 H    110  92  87     1.080231299138   118.52831752   341.93332078
 C     95  94  93     1.423946638765   119.39518536   359.33406404
 C     95  94  93     1.402914477651   119.35995011   179.07856259
 C     87  79  77     1.093821477139    61.75427077    84.21878662
 C     77  51  48     1.208351124502    69.49973286     6.08013186
 C     97  96  94     1.381449129118   122.08478627   358.33535144
 H     97  96  94     1.082894726184   118.56462307   177.80723804
 H    113  95  94     1.084686230437   118.40331884   179.98450870
 C     53  51  48     1.091942446722    36.06109573   135.11027794
 C    114  87  79     2.488840275879   147.76971350   309.05088800
 C     92  87  79     1.531561494270    49.98024419    30.41679650
 H    120 114  87     1.093669159600    91.90744370   231.56111223
 C    102  79  77     1.092930131843    36.17273405    20.09174306
 H    120 114  87     1.092699369396   147.71697238     0.19113223
 H    103  92  87     1.084992266713   119.87990747    54.70117017
 H     46  42  41     1.094958001716    89.54262489   105.93674116
 H    120 114  87     1.094545871062    89.32476467   123.48655640
 C     22  21  19     1.211395255570   179.53862115    80.49693537
 H    114  87  79     1.093591418809   107.49446878    66.86334783
 H     46  42  41     1.092932137568   147.70389381   230.30647816
 H    123 102  79     1.093670669036   107.78534891   116.46660904
 H     46  42  41     1.093739448694    91.54831882   357.82124156
 C     86  84  82     1.532816928588   119.80823736   180.43813376
 H     40  37  18     1.091940394035   111.38551613   355.91826362
 H     40  37  18     1.094578036504   111.05563645   116.22535505
 H     40  37  18     1.094132976804   111.13995983   235.38541217

---------------------------
INTERNAL COORDINATES (A.U.)
---------------------------
 C      0   0   0     0.000000000000     0.00000000     0.00000000
 C      1   0   0     7.176646022076     0.00000000     0.00000000
 C      2   1   0     2.634010085688   125.92500792     0.00000000
 H      3   2   1     2.051768014511   119.42427006   338.03501355
 C      3   2   1     2.630471582103   121.08616841   157.92632707
 H      5   3   2     2.047530466697   118.27166480   179.72728758
 C      5   3   2     2.637172700330   121.43024254     0.00000000
 H      1   2   3    13.493242288890   173.21431858   172.71146585
 C      7   5   3     2.644825136086   117.04937794   359.70583014
 H      9   7   5     2.051069859692   119.81500563   179.89381442
 C      9   7   5     2.619777753038   121.75933301     0.20110650
 H     11   9   7     2.050527329033   119.71451867   180.03004192
 C      8   1   2     6.543377687866    26.69938064   237.33517269
 C      1   2   3     2.627219209601   103.80454075    76.16987714
 C     14   1   2     2.684512117916   118.11240898     2.59224490
 C     15  14   1     2.707701850634   120.68121729   178.39354427
 C     15  14   1     2.695626548946   120.38390350   358.65704629
 C     17  15  14     2.685569144818   118.84891857   178.16781480
 C     17  15  14     2.687594307030   120.03303202   359.34971303
 H      1   2   3     2.043749154115   135.29884132   258.24172498
 C     19  17  15     2.643077299158   118.62148077     2.27038859
 C     21  19  17     2.699417290594   120.88485758   179.65008436
 H      8   1  20     4.787933602750    79.67285144    82.66210505
 C     13   8   1     2.667759773702   104.79051560   153.11731812
 C     24  13   8     2.589545891504   121.30777371   201.88133637
 H     25  24  13     2.048205821697   120.23955264   180.13197797
 C     25  24  13     2.670560553566   121.25337186   359.96715221
 H      8   1  20     3.337568825486    74.27488979   176.62899686
 C     27  25  24     2.673185163444   118.49381037     0.19605440
 C     22  21  19     4.873496451580   178.16324781    30.35779348
 C     13   8   1     2.613440926213   132.67354924     0.00000000
 H     31  13   8     2.041211771704   118.58075040   330.29203295
 C     16  15  14     2.691169207680   119.37138633     0.96061616
 C     16  15  14     2.651002377366   119.35173113   181.15476287
 C     28   8   1     2.065108290535    36.18916344     8.74835788
 C     33  16  15     2.679912527633   119.74121526   180.00545282
 C     18  17  15     2.610760097298   122.05385735     1.09196176
 H     18  17  15     2.046553711579   118.57890700   181.79241761
 H     34  16  15     2.049690643480   118.37687919   179.86346389
 C     37  18  17     2.846235457782   121.14254035   180.59138832
 H      6   5   3    12.463415998357   103.75373662    70.09601034
 C     41   6   5     2.066680793114    59.86847816   137.01611718
 H     42  41   6     2.066806898570   107.50880730    94.38486391
 H     43  42  41     4.649586337269    90.91323992   207.63591031
 C     44  43  42     2.068662475756    90.50573119     1.05946271
 C     42  41   6     4.704092655837    91.29535680     4.40456556
 H     45  44  43     2.065350189938   107.70849965   151.63596271
 H     45  44  43     2.067239451817   108.10816661   267.77479146
 H     42  41   6     2.067246856345   108.30231686   210.38104586
 H     35  28   8     2.066786092807   107.78015798   116.43967205
 H     48  45  44    14.466161243194   136.31926113   178.22672741
 H     51  48  45     3.327784196188    89.82717255   270.93604747
 H     51  48  45     3.341617090620    29.86599449   264.93706509
 C      7   5   3     2.897277635583   122.99174712   178.71523108
 C     54   7   5     2.909056543544   109.87248827   122.12807142
 H     55  54   7     2.065031325680   111.89142730    58.71528093
 H     55  54   7     2.068442834308   110.22703937   178.45805770
 C     54   7   5     2.909602951448   109.08408991   241.78531708
 H     55  54   7     2.067128306470   111.24759139   298.02387767
 H     58  54   7     2.068567985604   110.35198769   180.05605176
 C     54   7   5     2.897826617521   112.30205718     1.61433471
 H     58  54   7     2.065110136312   111.77637609   299.97137099
 H     58  54   7     2.066973502831   110.90465369    60.25671365
 H     23   8   1     3.347829611202   120.48978565    18.65892659
 H     61  54   7     2.066526427959   109.60806600   179.74531430
 H     61  54   7     2.066897726533   111.87311184   298.93872813
 H     61  54   7     2.067714021458   111.95384213    60.54443403
 C     13   8   1     2.893741178791    25.17137798   282.56358009
 C     68  13   8     2.896710478551   112.48821220   120.63788982
 H     69  68  13     2.067139022668   111.79136414   299.03040496
 H     69  68  13     2.067142941523   111.90905111    60.76282307
 C     64  23   8     2.066744788125    35.95871111    33.78968201
 H     69  68  13     2.066537739181   109.59532866   179.92849510
 H     72  64  23     2.065066717693   107.78090656   116.18033427
 H     36  33  16     4.297010694490   179.95984632   349.28710593
 C     75  36  33     2.013558811771     0.02160031    24.05795194
 C     51  48  45    10.306395248619   137.71651553   348.33552062
 H     77  51  48     2.013537547363   110.54202839   186.06023409
 H     77  51  48    16.796201850018   120.89075991     6.64019134
 C     30  22  21     6.692632113500   163.96507136   216.89660280
 C     30  22  21     6.806987962168   131.43426480    22.32844939
 C     81  30  22     2.640950694069    72.87092461   314.00712802
 H     82  81  30     2.050304328867   119.52078477   296.68149513
 C     82  81  30     2.617607027591   120.91600751   115.85224722
 H     84  82  81     2.050857569526   118.37304878   181.47907765
 C     84  82  81     2.644829996565   121.73070177     0.44207423
 H     79  77  51     5.763474067589    74.77388965   359.29934194
 C     86  84  82     2.634972839201   117.07699006   359.79611019
 H     88  86  84     2.047253584375   120.26559227   180.48772890
 C     88  86  84     2.630394153680   121.44597422   359.83636371
 H     90  88  86     2.051642975348   119.43842892   181.12036437
 C     87  79  77     5.354044998312    71.98747060    14.82485881
 C     80  30  22     2.627535274060   162.72658643   166.84631789
 C     93  80  30     2.684714193265   118.07347826     0.12054666
 C     94  93  80     2.708209230549   120.62705510   180.40743822
 C     94  93  80     2.696959703449   120.43599892     0.04119851
 C     96  94  93     2.685848849133   118.79633846   182.06830746
 C     96  94  93     2.688085152632   120.06959391     0.78836803
 H     80  30  22     2.043900452919    76.44216040   346.85824772
 C     98  96  94     2.645981813779   118.48988876   358.78364424
 C     30  22  21     2.289132065561   175.29152796   350.03656270
 H     79  77  51     3.338470124796    25.56550291   194.98508818
 C     92  87  79     2.667753807149   158.34634548   322.36072716
 C    103  92  87     2.589333388258   121.29677899   234.63483525
 H    104 103  92     2.048173210652   120.23617465   180.19108086
 C    104 103  92     2.670521550173   121.26298762     0.12462272
 H     87  79  77     3.351821617530    97.55158734    82.55032797
 C    106 104 103     2.673205150951   118.52188801     0.20929566
 H     24  13   8     2.050337858477   119.85652234    21.99037389
 C     92  87  79     2.613521139333    76.08742543   190.80220086
 H    110  92  87     2.041341316660   118.52831752   341.93332078
 C     95  94  93     2.690869176583   119.39518536   359.33406404
 C     95  94  93     2.651124152074   119.35995011   179.07856259
 C     87  79  77     2.067023031194    61.75427077    84.21878662
 C     77  51  48     2.283452698925    69.49973286     6.08013186
 C     97  96  94     2.610560521978   122.08478627   358.33535144
 H     97  96  94     2.046374464355   118.56462307   177.80723804
 H    113  95  94     2.049759916761   118.40331884   179.98450870
 C     53  51  48     2.063472178308    36.06109573   135.11027794
 C    114  87  79     4.703226512484   147.76971350   309.05088800
 C     92  87  79     2.894231781429    49.98024419    30.41679650
 H    120 114  87     2.066735192760    91.90744370   231.56111223
 C    102  79  77     2.065338632694    36.17273405    20.09174306
 H    120 114  87     2.064902554867   147.71697238     0.19113223
 H    103  92  87     2.050338241509   119.87990747    54.70117017
 H     46  42  41     2.069170751388    89.54262489   105.93674116
 H    120 114  87     2.068391937321    89.32476467   123.48655640
 C     22  21  19     2.289205272959   179.53862115    80.49693537
 H    114  87  79     2.066588283956   107.49446878    66.86334783
 H     46  42  41     2.065342422966   147.70389381   230.30647816
 H    123 102  79     2.066738045181   107.78534891   116.46660904
 H     46  42  41     2.066868019897    91.54831882   357.82124156
 C     86  84  82     2.896604208470   119.80823736   180.43813376
 H     40  37  18     2.063468299292   111.38551613   355.91826362
 H     40  37  18     2.068452721197   111.05563645   116.22535505
 H     40  37  18     2.067611680251   111.13995983   235.38541217

---------------------
BASIS SET INFORMATION
---------------------
There are 2 groups of distinct atoms

 Group   1 Type C   : 10s4p1d contracted to 3s2p1d pattern {631/31/1}
 Group   2 Type H   : 4s1p contracted to 2s1p pattern {31/1}

Atom   0C    basis set group =>   1
Atom   1C    basis set group =>   1
Atom   2C    basis set group =>   1
Atom   3H    basis set group =>   2
Atom   4C    basis set group =>   1
Atom   5H    basis set group =>   2
Atom   6C    basis set group =>   1
Atom   7H    basis set group =>   2
Atom   8C    basis set group =>   1
Atom   9H    basis set group =>   2
Atom  10C    basis set group =>   1
Atom  11H    basis set group =>   2
Atom  12C    basis set group =>   1
Atom  13C    basis set group =>   1
Atom  14C    basis set group =>   1
Atom  15C    basis set group =>   1
Atom  16C    basis set group =>   1
Atom  17C    basis set group =>   1
Atom  18C    basis set group =>   1
Atom  19H    basis set group =>   2
Atom  20C    basis set group =>   1
Atom  21C    basis set group =>   1
Atom  22H    basis set group =>   2
Atom  23C    basis set group =>   1
Atom  24C    basis set group =>   1
Atom  25H    basis set group =>   2
Atom  26C    basis set group =>   1
Atom  27H    basis set group =>   2
Atom  28C    basis set group =>   1
Atom  29C    basis set group =>   1
Atom  30C    basis set group =>   1
Atom  31H    basis set group =>   2
Atom  32C    basis set group =>   1
Atom  33C    basis set group =>   1
Atom  34C    basis set group =>   1
Atom  35C    basis set group =>   1
Atom  36C    basis set group =>   1
Atom  37H    basis set group =>   2
Atom  38H    basis set group =>   2
Atom  39C    basis set group =>   1
Atom  40H    basis set group =>   2
Atom  41C    basis set group =>   1
Atom  42H    basis set group =>   2
Atom  43H    basis set group =>   2
Atom  44C    basis set group =>   1
Atom  45C    basis set group =>   1
Atom  46H    basis set group =>   2
Atom  47H    basis set group =>   2
Atom  48H    basis set group =>   2
Atom  49H    basis set group =>   2
Atom  50H    basis set group =>   2
Atom  51H    basis set group =>   2
Atom  52H    basis set group =>   2
Atom  53C    basis set group =>   1
Atom  54C    basis set group =>   1
Atom  55H    basis set group =>   2
Atom  56H    basis set group =>   2
Atom  57C    basis set group =>   1
Atom  58H    basis set group =>   2
Atom  59H    basis set group =>   2
Atom  60C    basis set group =>   1
Atom  61H    basis set group =>   2
Atom  62H    basis set group =>   2
Atom  63H    basis set group =>   2
Atom  64H    basis set group =>   2
Atom  65H    basis set group =>   2
Atom  66H    basis set group =>   2
Atom  67C    basis set group =>   1
Atom  68C    basis set group =>   1
Atom  69H    basis set group =>   2
Atom  70H    basis set group =>   2
Atom  71C    basis set group =>   1
Atom  72H    basis set group =>   2
Atom  73H    basis set group =>   2
Atom  74H    basis set group =>   2
Atom  75C    basis set group =>   1
Atom  76C    basis set group =>   1
Atom  77H    basis set group =>   2
Atom  78H    basis set group =>   2
Atom  79C    basis set group =>   1
Atom  80C    basis set group =>   1
Atom  81C    basis set group =>   1
Atom  82H    basis set group =>   2
Atom  83C    basis set group =>   1
Atom  84H    basis set group =>   2
Atom  85C    basis set group =>   1
Atom  86H    basis set group =>   2
Atom  87C    basis set group =>   1
Atom  88H    basis set group =>   2
Atom  89C    basis set group =>   1
Atom  90H    basis set group =>   2
Atom  91C    basis set group =>   1
Atom  92C    basis set group =>   1
Atom  93C    basis set group =>   1
Atom  94C    basis set group =>   1
Atom  95C    basis set group =>   1
Atom  96C    basis set group =>   1
Atom  97C    basis set group =>   1
Atom  98H    basis set group =>   2
Atom  99C    basis set group =>   1
Atom 100C    basis set group =>   1
Atom 101H    basis set group =>   2
Atom 102C    basis set group =>   1
Atom 103C    basis set group =>   1
Atom 104H    basis set group =>   2
Atom 105C    basis set group =>   1
Atom 106H    basis set group =>   2
Atom 107C    basis set group =>   1
Atom 108H    basis set group =>   2
Atom 109C    basis set group =>   1
Atom 110H    basis set group =>   2
Atom 111C    basis set group =>   1
Atom 112C    basis set group =>   1
Atom 113C    basis set group =>   1
Atom 114C    basis set group =>   1
Atom 115C    basis set group =>   1
Atom 116H    basis set group =>   2
Atom 117H    basis set group =>   2
Atom 118C    basis set group =>   1
Atom 119C    basis set group =>   1
Atom 120C    basis set group =>   1
Atom 121H    basis set group =>   2
Atom 122C    basis set group =>   1
Atom 123H    basis set group =>   2
Atom 124H    basis set group =>   2
Atom 125H    basis set group =>   2
Atom 126H    basis set group =>   2
Atom 127C    basis set group =>   1
Atom 128H    basis set group =>   2
Atom 129H    basis set group =>   2
Atom 130H    basis set group =>   2
Atom 131H    basis set group =>   2
Atom 132C    basis set group =>   1
Atom 133H    basis set group =>   2
Atom 134H    basis set group =>   2
Atom 135H    basis set group =>   2
---------------------------------
AUXILIARY/J BASIS SET INFORMATION
---------------------------------
There are 2 groups of distinct atoms

 Group   1 Type C   : 13s11p10d2f contracted to 13s11p10d2f pattern {1111111111111/11111111111/1111111111/11}
 Group   2 Type H   : 10s2p1d contracted to 10s2p1d pattern {1111111111/11/1}

Atom   0C    basis set group =>   1
Atom   1C    basis set group =>   1
Atom   2C    basis set group =>   1
Atom   3H    basis set group =>   2
Atom   4C    basis set group =>   1
Atom   5H    basis set group =>   2
Atom   6C    basis set group =>   1
Atom   7H    basis set group =>   2
Atom   8C    basis set group =>   1
Atom   9H    basis set group =>   2
Atom  10C    basis set group =>   1
Atom  11H    basis set group =>   2
Atom  12C    basis set group =>   1
Atom  13C    basis set group =>   1
Atom  14C    basis set group =>   1
Atom  15C    basis set group =>   1
Atom  16C    basis set group =>   1
Atom  17C    basis set group =>   1
Atom  18C    basis set group =>   1
Atom  19H    basis set group =>   2
Atom  20C    basis set group =>   1
Atom  21C    basis set group =>   1
Atom  22H    basis set group =>   2
Atom  23C    basis set group =>   1
Atom  24C    basis set group =>   1
Atom  25H    basis set group =>   2
Atom  26C    basis set group =>   1
Atom  27H    basis set group =>   2
Atom  28C    basis set group =>   1
Atom  29C    basis set group =>   1
Atom  30C    basis set group =>   1
Atom  31H    basis set group =>   2
Atom  32C    basis set group =>   1
Atom  33C    basis set group =>   1
Atom  34C    basis set group =>   1
Atom  35C    basis set group =>   1
Atom  36C    basis set group =>   1
Atom  37H    basis set group =>   2
Atom  38H    basis set group =>   2
Atom  39C    basis set group =>   1
Atom  40H    basis set group =>   2
Atom  41C    basis set group =>   1
Atom  42H    basis set group =>   2
Atom  43H    basis set group =>   2
Atom  44C    basis set group =>   1
Atom  45C    basis set group =>   1
Atom  46H    basis set group =>   2
Atom  47H    basis set group =>   2
Atom  48H    basis set group =>   2
Atom  49H    basis set group =>   2
Atom  50H    basis set group =>   2
Atom  51H    basis set group =>   2
Atom  52H    basis set group =>   2
Atom  53C    basis set group =>   1
Atom  54C    basis set group =>   1
Atom  55H    basis set group =>   2
Atom  56H    basis set group =>   2
Atom  57C    basis set group =>   1
Atom  58H    basis set group =>   2
Atom  59H    basis set group =>   2
Atom  60C    basis set group =>   1
Atom  61H    basis set group =>   2
Atom  62H    basis set group =>   2
Atom  63H    basis set group =>   2
Atom  64H    basis set group =>   2
Atom  65H    basis set group =>   2
Atom  66H    basis set group =>   2
Atom  67C    basis set group =>   1
Atom  68C    basis set group =>   1
Atom  69H    basis set group =>   2
Atom  70H    basis set group =>   2
Atom  71C    basis set group =>   1
Atom  72H    basis set group =>   2
Atom  73H    basis set group =>   2
Atom  74H    basis set group =>   2
Atom  75C    basis set group =>   1
Atom  76C    basis set group =>   1
Atom  77H    basis set group =>   2
Atom  78H    basis set group =>   2
Atom  79C    basis set group =>   1
Atom  80C    basis set group =>   1
Atom  81C    basis set group =>   1
Atom  82H    basis set group =>   2
Atom  83C    basis set group =>   1
Atom  84H    basis set group =>   2
Atom  85C    basis set group =>   1
Atom  86H    basis set group =>   2
Atom  87C    basis set group =>   1
Atom  88H    basis set group =>   2
Atom  89C    basis set group =>   1
Atom  90H    basis set group =>   2
Atom  91C    basis set group =>   1
Atom  92C    basis set group =>   1
Atom  93C    basis set group =>   1
Atom  94C    basis set group =>   1
Atom  95C    basis set group =>   1
Atom  96C    basis set group =>   1
Atom  97C    basis set group =>   1
Atom  98H    basis set group =>   2
Atom  99C    basis set group =>   1
Atom 100C    basis set group =>   1
Atom 101H    basis set group =>   2
Atom 102C    basis set group =>   1
Atom 103C    basis set group =>   1
Atom 104H    basis set group =>   2
Atom 105C    basis set group =>   1
Atom 106H    basis set group =>   2
Atom 107C    basis set group =>   1
Atom 108H    basis set group =>   2
Atom 109C    basis set group =>   1
Atom 110H    basis set group =>   2
Atom 111C    basis set group =>   1
Atom 112C    basis set group =>   1
Atom 113C    basis set group =>   1
Atom 114C    basis set group =>   1
Atom 115C    basis set group =>   1
Atom 116H    basis set group =>   2
Atom 117H    basis set group =>   2
Atom 118C    basis set group =>   1
Atom 119C    basis set group =>   1
Atom 120C    basis set group =>   1
Atom 121H    basis set group =>   2
Atom 122C    basis set group =>   1
Atom 123H    basis set group =>   2
Atom 124H    basis set group =>   2
Atom 125H    basis set group =>   2
Atom 126H    basis set group =>   2
Atom 127C    basis set group =>   1
Atom 128H    basis set group =>   2
Atom 129H    basis set group =>   2
Atom 130H    basis set group =>   2
Atom 131H    basis set group =>   2
Atom 132C    basis set group =>   1
Atom 133H    basis set group =>   2
Atom 134H    basis set group =>   2
Atom 135H    basis set group =>   2
---------------------------------
AUXILIARY/C BASIS SET INFORMATION
---------------------------------
There are 2 groups of distinct atoms

 Group   1 Type C   : 13s11p10d2f contracted to 13s11p10d2f pattern {1111111111111/11111111111/1111111111/11}
 Group   2 Type H   : 10s2p1d contracted to 10s2p1d pattern {1111111111/11/1}

Atom   0C    basis set group =>   1
Atom   1C    basis set group =>   1
Atom   2C    basis set group =>   1
Atom   3H    basis set group =>   2
Atom   4C    basis set group =>   1
Atom   5H    basis set group =>   2
Atom   6C    basis set group =>   1
Atom   7H    basis set group =>   2
Atom   8C    basis set group =>   1
Atom   9H    basis set group =>   2
Atom  10C    basis set group =>   1
Atom  11H    basis set group =>   2
Atom  12C    basis set group =>   1
Atom  13C    basis set group =>   1
Atom  14C    basis set group =>   1
Atom  15C    basis set group =>   1
Atom  16C    basis set group =>   1
Atom  17C    basis set group =>   1
Atom  18C    basis set group =>   1
Atom  19H    basis set group =>   2
Atom  20C    basis set group =>   1
Atom  21C    basis set group =>   1
Atom  22H    basis set group =>   2
Atom  23C    basis set group =>   1
Atom  24C    basis set group =>   1
Atom  25H    basis set group =>   2
Atom  26C    basis set group =>   1
Atom  27H    basis set group =>   2
Atom  28C    basis set group =>   1
Atom  29C    basis set group =>   1
Atom  30C    basis set group =>   1
Atom  31H    basis set group =>   2
Atom  32C    basis set group =>   1
Atom  33C    basis set group =>   1
Atom  34C    basis set group =>   1
Atom  35C    basis set group =>   1
Atom  36C    basis set group =>   1
Atom  37H    basis set group =>   2
Atom  38H    basis set group =>   2
Atom  39C    basis set group =>   1
Atom  40H    basis set group =>   2
Atom  41C    basis set group =>   1
Atom  42H    basis set group =>   2
Atom  43H    basis set group =>   2
Atom  44C    basis set group =>   1
Atom  45C    basis set group =>   1
Atom  46H    basis set group =>   2
Atom  47H    basis set group =>   2
Atom  48H    basis set group =>   2
Atom  49H    basis set group =>   2
Atom  50H    basis set group =>   2
Atom  51H    basis set group =>   2
Atom  52H    basis set group =>   2
Atom  53C    basis set group =>   1
Atom  54C    basis set group =>   1
Atom  55H    basis set group =>   2
Atom  56H    basis set group =>   2
Atom  57C    basis set group =>   1
Atom  58H    basis set group =>   2
Atom  59H    basis set group =>   2
Atom  60C    basis set group =>   1
Atom  61H    basis set group =>   2
Atom  62H    basis set group =>   2
Atom  63H    basis set group =>   2
Atom  64H    basis set group =>   2
Atom  65H    basis set group =>   2
Atom  66H    basis set group =>   2
Atom  67C    basis set group =>   1
Atom  68C    basis set group =>   1
Atom  69H    basis set group =>   2
Atom  70H    basis set group =>   2
Atom  71C    basis set group =>   1
Atom  72H    basis set group =>   2
Atom  73H    basis set group =>   2
Atom  74H    basis set group =>   2
Atom  75C    basis set group =>   1
Atom  76C    basis set group =>   1
Atom  77H    basis set group =>   2
Atom  78H    basis set group =>   2
Atom  79C    basis set group =>   1
Atom  80C    basis set group =>   1
Atom  81C    basis set group =>   1
Atom  82H    basis set group =>   2
Atom  83C    basis set group =>   1
Atom  84H    basis set group =>   2
Atom  85C    basis set group =>   1
Atom  86H    basis set group =>   2
Atom  87C    basis set group =>   1
Atom  88H    basis set group =>   2
Atom  89C    basis set group =>   1
Atom  90H    basis set group =>   2
Atom  91C    basis set group =>   1
Atom  92C    basis set group =>   1
Atom  93C    basis set group =>   1
Atom  94C    basis set group =>   1
Atom  95C    basis set group =>   1
Atom  96C    basis set group =>   1
Atom  97C    basis set group =>   1
Atom  98H    basis set group =>   2
Atom  99C    basis set group =>   1
Atom 100C    basis set group =>   1
Atom 101H    basis set group =>   2
Atom 102C    basis set group =>   1
Atom 103C    basis set group =>   1
Atom 104H    basis set group =>   2
Atom 105C    basis set group =>   1
Atom 106H    basis set group =>   2
Atom 107C    basis set group =>   1
Atom 108H    basis set group =>   2
Atom 109C    basis set group =>   1
Atom 110H    basis set group =>   2
Atom 111C    basis set group =>   1
Atom 112C    basis set group =>   1
Atom 113C    basis set group =>   1
Atom 114C    basis set group =>   1
Atom 115C    basis set group =>   1
Atom 116H    basis set group =>   2
Atom 117H    basis set group =>   2
Atom 118C    basis set group =>   1
Atom 119C    basis set group =>   1
Atom 120C    basis set group =>   1
Atom 121H    basis set group =>   2
Atom 122C    basis set group =>   1
Atom 123H    basis set group =>   2
Atom 124H    basis set group =>   2
Atom 125H    basis set group =>   2
Atom 126H    basis set group =>   2
Atom 127C    basis set group =>   1
Atom 128H    basis set group =>   2
Atom 129H    basis set group =>   2
Atom 130H    basis set group =>   2
Atom 131H    basis set group =>   2
Atom 132C    basis set group =>   1
Atom 133H    basis set group =>   2
Atom 134H    basis set group =>   2
Atom 135H    basis set group =>   2
----------------------------------
AUXILIARY/JK BASIS SET INFORMATION
----------------------------------
There are 2 groups of distinct atoms

 Group   1 Type C   : 13s11p10d2f contracted to 13s11p10d2f pattern {1111111111111/11111111111/1111111111/11}
 Group   2 Type H   : 10s2p1d contracted to 10s2p1d pattern {1111111111/11/1}

Atom   0C    basis set group =>   1
Atom   1C    basis set group =>   1
Atom   2C    basis set group =>   1
Atom   3H    basis set group =>   2
Atom   4C    basis set group =>   1
Atom   5H    basis set group =>   2
Atom   6C    basis set group =>   1
Atom   7H    basis set group =>   2
Atom   8C    basis set group =>   1
Atom   9H    basis set group =>   2
Atom  10C    basis set group =>   1
Atom  11H    basis set group =>   2
Atom  12C    basis set group =>   1
Atom  13C    basis set group =>   1
Atom  14C    basis set group =>   1
Atom  15C    basis set group =>   1
Atom  16C    basis set group =>   1
Atom  17C    basis set group =>   1
Atom  18C    basis set group =>   1
Atom  19H    basis set group =>   2
Atom  20C    basis set group =>   1
Atom  21C    basis set group =>   1
Atom  22H    basis set group =>   2
Atom  23C    basis set group =>   1
Atom  24C    basis set group =>   1
Atom  25H    basis set group =>   2
Atom  26C    basis set group =>   1
Atom  27H    basis set group =>   2
Atom  28C    basis set group =>   1
Atom  29C    basis set group =>   1
Atom  30C    basis set group =>   1
Atom  31H    basis set group =>   2
Atom  32C    basis set group =>   1
Atom  33C    basis set group =>   1
Atom  34C    basis set group =>   1
Atom  35C    basis set group =>   1
Atom  36C    basis set group =>   1
Atom  37H    basis set group =>   2
Atom  38H    basis set group =>   2
Atom  39C    basis set group =>   1
Atom  40H    basis set group =>   2
Atom  41C    basis set group =>   1
Atom  42H    basis set group =>   2
Atom  43H    basis set group =>   2
Atom  44C    basis set group =>   1
Atom  45C    basis set group =>   1
Atom  46H    basis set group =>   2
Atom  47H    basis set group =>   2
Atom  48H    basis set group =>   2
Atom  49H    basis set group =>   2
Atom  50H    basis set group =>   2
Atom  51H    basis set group =>   2
Atom  52H    basis set group =>   2
Atom  53C    basis set group =>   1
Atom  54C    basis set group =>   1
Atom  55H    basis set group =>   2
Atom  56H    basis set group =>   2
Atom  57C    basis set group =>   1
Atom  58H    basis set group =>   2
Atom  59H    basis set group =>   2
Atom  60C    basis set group =>   1
Atom  61H    basis set group =>   2
Atom  62H    basis set group =>   2
Atom  63H    basis set group =>   2
Atom  64H    basis set group =>   2
Atom  65H    basis set group =>   2
Atom  66H    basis set group =>   2
Atom  67C    basis set group =>   1
Atom  68C    basis set group =>   1
Atom  69H    basis set group =>   2
Atom  70H    basis set group =>   2
Atom  71C    basis set group =>   1
Atom  72H    basis set group =>   2
Atom  73H    basis set group =>   2
Atom  74H    basis set group =>   2
Atom  75C    basis set group =>   1
Atom  76C    basis set group =>   1
Atom  77H    basis set group =>   2
Atom  78H    basis set group =>   2
Atom  79C    basis set group =>   1
Atom  80C    basis set group =>   1
Atom  81C    basis set group =>   1
Atom  82H    basis set group =>   2
Atom  83C    basis set group =>   1
Atom  84H    basis set group =>   2
Atom  85C    basis set group =>   1
Atom  86H    basis set group =>   2
Atom  87C    basis set group =>   1
Atom  88H    basis set group =>   2
Atom  89C    basis set group =>   1
Atom  90H    basis set group =>   2
Atom  91C    basis set group =>   1
Atom  92C    basis set group =>   1
Atom  93C    basis set group =>   1
Atom  94C    basis set group =>   1
Atom  95C    basis set group =>   1
Atom  96C    basis set group =>   1
Atom  97C    basis set group =>   1
Atom  98H    basis set group =>   2
Atom  99C    basis set group =>   1
Atom 100C    basis set group =>   1
Atom 101H    basis set group =>   2
Atom 102C    basis set group =>   1
Atom 103C    basis set group =>   1
Atom 104H    basis set group =>   2
Atom 105C    basis set group =>   1
Atom 106H    basis set group =>   2
Atom 107C    basis set group =>   1
Atom 108H    basis set group =>   2
Atom 109C    basis set group =>   1
Atom 110H    basis set group =>   2
Atom 111C    basis set group =>   1
Atom 112C    basis set group =>   1
Atom 113C    basis set group =>   1
Atom 114C    basis set group =>   1
Atom 115C    basis set group =>   1
Atom 116H    basis set group =>   2
Atom 117H    basis set group =>   2
Atom 118C    basis set group =>   1
Atom 119C    basis set group =>   1
Atom 120C    basis set group =>   1
Atom 121H    basis set group =>   2
Atom 122C    basis set group =>   1
Atom 123H    basis set group =>   2
Atom 124H    basis set group =>   2
Atom 125H    basis set group =>   2
Atom 126H    basis set group =>   2
Atom 127C    basis set group =>   1
Atom 128H    basis set group =>   2
Atom 129H    basis set group =>   2
Atom 130H    basis set group =>   2
Atom 131H    basis set group =>   2
Atom 132C    basis set group =>   1
Atom 133H    basis set group =>   2
Atom 134H    basis set group =>   2
Atom 135H    basis set group =>   2

Checking for AutoStart:
The File: oby_singlet_uks_cam_b3lyp_631gdp_brsym.gbw exists
Trying to determine its content:
     ... Fine, the file contains calculation information
     ... Fine, the calculation information was read
     ... Fine, the file contains a basis set
     ... Fine, the basis set was read
     ... Fine, the file contains a geometry
     ... Fine, the geometry was read
     ... Fine, the file contains a set of orbitals
     ... Fine, the orbitals can be read
     => possible old guess file was deleted
     => GBW file was renamed to GES file
     => GES file is set as startup file
     => Guess is set to MORead
     ... now leaving AutoStart

MPIWRAPPER IN -np 8 /gpfs/research/software/orca/orca_5_0_1_linux_x86-64_openmpi411/orca_gtoint_mpi oby_singlet_uks_cam_b3lyp_631gdp_brsym.int.tmp oby_singlet_uks_cam_b3lyp_631gdp_brsym
MPIWRAPPER OUT -n 8 /gpfs/research/software/orca/orca_5_0_1_linux_x86-64_openmpi411/orca_gtoint_mpi oby_singlet_uks_cam_b3lyp_631gdp_brsym.int.tmp oby_singlet_uks_cam_b3lyp_631gdp_brsym


           ************************************************************
           *        Program running with 8 parallel MPI-processes     *
           *              working on a common directory               *
           ************************************************************
------------------------------------------------------------------------------
                           ORCA GTO INTEGRAL CALCULATION
                           -- RI-GTO INTEGRALS CHOSEN --
------------------------------------------------------------------------------
------------------------------------------------------------------------------
                   ___                                                        
                  /   \      - P O W E R E D   B Y -                         
                 /     \                                                     
                 |  |  |   _    _      __       _____    __    __             
                 |  |  |  | |  | |    /  \     |  _  \  |  |  /  |          
                  \  \/   | |  | |   /    \    | | | |  |  | /  /          
                 / \  \   | |__| |  /  /\  \   | |_| |  |  |/  /          
                |  |  |   |  __  | /  /__\  \  |    /   |      \           
                |  |  |   | |  | | |   __   |  |    \   |  |\   \          
                \     /   | |  | | |  |  |  |  | |\  \  |  | \   \       
                 \___/    |_|  |_| |__|  |__|  |_| \__\ |__|  \__/        
                                                                              
                      - O R C A' S   B I G   F R I E N D -                    
                                      &                                       
                       - I N T E G R A L  F E E D E R -                       
                                                                              
 v1 FN, 2020, v2 2021                                                         
------------------------------------------------------------------------------


Reading SHARK input file oby_singlet_uks_cam_b3lyp_631gdp_brsym.SHARKINP.tmp ... ok
----------------------
SHARK INTEGRAL PACKAGE
----------------------

Number of atoms                             ...    136
Number of basis functions                   ...   1328
Number of shells                            ...    624
Maximum angular momentum                    ...      2
Integral batch strategy                     ... SHARK/LIBINT Hybrid
RI-J (if used) integral strategy            ... SPLIT-RIJ (Revised 2003 algorithm where possible)
Printlevel                                  ...      1
Contraction scheme used                     ... SEGMENTED contraction
Coulomb Range Separation                    ... NOT USED
Exchange Range Separation                   ... Long Range
   Mu parameter                             ...  0.330000
   Scaling (regular/separated)              ...  0.190000  0.460000
Finite Nucleus Model                        ... NOT USED
Auxiliary Coulomb fitting basis             ... AVAILABLE
   # of basis functions in Aux-J            ...   9264
   # of shells in Aux-J                     ...   3424
   Maximum angular momentum in Aux-J        ...      3
Auxiliary J/K fitting basis                 ... AVAILABLE
   # of basis functions in Aux-JK           ...   9264
   # of shells in Aux-JK                    ...   3424
   Maximum angular momentum in Aux-JK       ...      3
Auxiliary Correlation fitting basis         ... AVAILABLE
   # of basis functions in Aux-C            ...   9264
   # of shells in Aux-C                     ...   3424
   Maximum angular momentum in Aux-C        ...      3
Auxiliary 'external' fitting basis          ... NOT available
Integral threshold                          ...     1.000000e-10
Primitive cut-off                           ...     1.000000e-11
Primitive pair pre-selection threshold      ...     1.000000e-11

Calculating pre-screening integrals         ... done (  1.2 sec) Dimension = 624
Organizing shell pair data                  ... done (  0.3 sec)
Shell pair information
Total number of shell pairs                 ...    195000
Shell pairs after pre-screening             ...     54988
Total number of primitive shell pairs       ...    982404
Primitive shell pairs kept                  ...    144084
          la=0 lb=0:  16354 shell pairs
          la=1 lb=0:  21212 shell pairs
          la=1 lb=1:   6901 shell pairs
          la=2 lb=0:   5972 shell pairs
          la=2 lb=1:   4013 shell pairs
          la=2 lb=2:    536 shell pairs

Calculating one electron integrals          ... done (  0.3 sec)
Calculating RI/J V-Matrix + Cholesky decomp.... done (  9.2 sec)
Calculating RI/JK V-Matrix + Cholesky decomp... done (  9.3 sec)
Calculating RI/C V-Matrix + Cholesky decomp.... done (  9.3 sec)
Calculating Nuclear repulsion               ... done (  0.0 sec) ENN=  10026.141843790298 Eh

SHARK setup successfully completed in  30.0 seconds

Maximum memory used throughout the entire GTOINT-calculation: 337.6 MB
MPIWRAPPER IN -np 8 /gpfs/research/software/orca/orca_5_0_1_linux_x86-64_openmpi411/orca_scf_mpi oby_singlet_uks_cam_b3lyp_631gdp_brsym.gbw b oby_singlet_uks_cam_b3lyp_631gdp_brsym
MPIWRAPPER OUT -n 8 /gpfs/research/software/orca/orca_5_0_1_linux_x86-64_openmpi411/orca_scf_mpi oby_singlet_uks_cam_b3lyp_631gdp_brsym.gbw b oby_singlet_uks_cam_b3lyp_631gdp_brsym


           ************************************************************
           *        Program running with 8 parallel MPI-processes     *
           *              working on a common directory               *
           ************************************************************
-------------------------------------------------------------------------------
                                 ORCA SCF
-------------------------------------------------------------------------------

------------
SCF SETTINGS
------------
Hamiltonian:
 Density Functional     Method          .... DFT(GTOs)
 Exchange Functional    Exchange        .... WB88
 Correlation Functional Correlation     .... LYP
 LDA part of GGA corr.  LDAOpt          .... VWN-5
 Gradients option       PostSCFGGA      .... off
 Hybrid DFT is turned on
[...]
freq.     332.47  E(vib)   ...       0.24 
freq.     333.88  E(vib)   ...       0.24 
freq.     336.57  E(vib)   ...       0.24 
freq.     337.17  E(vib)   ...       0.24 
freq.     342.83  E(vib)   ...       0.23 
freq.     345.90  E(vib)   ...       0.23 
freq.     347.43  E(vib)   ...       0.23 
freq.     354.80  E(vib)   ...       0.22 
freq.     365.64  E(vib)   ...       0.22 
freq.     369.98  E(vib)   ...       0.21 
freq.     371.26  E(vib)   ...       0.21 
freq.     371.80  E(vib)   ...       0.21 
freq.     372.87  E(vib)   ...       0.21 
freq.     374.19  E(vib)   ...       0.21 
freq.     385.78  E(vib)   ...       0.20 
freq.     395.75  E(vib)   ...       0.20 
freq.     404.94  E(vib)   ...       0.19 
freq.     419.38  E(vib)   ...       0.18 
freq.     422.57  E(vib)   ...       0.18 
freq.     426.31  E(vib)   ...       0.18 
freq.     428.17  E(vib)   ...       0.18 
freq.     431.61  E(vib)   ...       0.18 
freq.     431.65  E(vib)   ...       0.18 
freq.     440.41  E(vib)   ...       0.17 
freq.     441.28  E(vib)   ...       0.17 
freq.     447.16  E(vib)   ...       0.17 
freq.     450.59  E(vib)   ...       0.17 
freq.     457.08  E(vib)   ...       0.16 
freq.     464.82  E(vib)   ...       0.16 
freq.     469.09  E(vib)   ...       0.16 
freq.     470.34  E(vib)   ...       0.15 
freq.     470.37  E(vib)   ...       0.15 
freq.     471.01  E(vib)   ...       0.15 
freq.     485.49  E(vib)   ...       0.15 
freq.     487.62  E(vib)   ...       0.15 
freq.     505.14  E(vib)   ...       0.14 
freq.     509.63  E(vib)   ...       0.14 
freq.     527.04  E(vib)   ...       0.13 
freq.     527.74  E(vib)   ...       0.13 
freq.     529.83  E(vib)   ...       0.13 
freq.     532.01  E(vib)   ...       0.13 
freq.     535.08  E(vib)   ...       0.13 
freq.     538.35  E(vib)   ...       0.12 
freq.     567.31  E(vib)   ...       0.11 
freq.     573.41  E(vib)   ...       0.11 
freq.     577.13  E(vib)   ...       0.11 
freq.     579.75  E(vib)   ...       0.11 
freq.     584.52  E(vib)   ...       0.11 
freq.     586.94  E(vib)   ...       0.10 
freq.     594.02  E(vib)   ...       0.10 
freq.     594.69  E(vib)   ...       0.10 
freq.     605.71  E(vib)   ...       0.10 
freq.     606.94  E(vib)   ...       0.10 
freq.     614.12  E(vib)   ...       0.10 
freq.     614.52  E(vib)   ...       0.10 
freq.     641.88  E(vib)   ...       0.09 
freq.     650.32  E(vib)   ...       0.08 
freq.     654.46  E(vib)   ...       0.08 
freq.     657.77  E(vib)   ...       0.08 
freq.     658.85  E(vib)   ...       0.08 
freq.     670.44  E(vib)   ...       0.08 
freq.     670.98  E(vib)   ...       0.08 
freq.     681.17  E(vib)   ...       0.08 
freq.     688.34  E(vib)   ...       0.07 
freq.     688.51  E(vib)   ...       0.07 
freq.     690.06  E(vib)   ...       0.07 
freq.     690.49  E(vib)   ...       0.07 
freq.     696.65  E(vib)   ...       0.07 
freq.     702.33  E(vib)   ...       0.07 
freq.     711.01  E(vib)   ...       0.07 
freq.     720.80  E(vib)   ...       0.07 
freq.     726.72  E(vib)   ...       0.06 
freq.     731.44  E(vib)   ...       0.06 
freq.     746.24  E(vib)   ...       0.06 
freq.     753.82  E(vib)   ...       0.06 
freq.     756.79  E(vib)   ...       0.06 
freq.     775.44  E(vib)   ...       0.05 
freq.     776.19  E(vib)   ...       0.05 
freq.     778.81  E(vib)   ...       0.05 
freq.     780.12  E(vib)   ...       0.05 
freq.     786.12  E(vib)   ...       0.05 
freq.     789.11  E(vib)   ...       0.05 
freq.     808.65  E(vib)   ...       0.05 
freq.     815.90  E(vib)   ...       0.05 
freq.     816.24  E(vib)   ...       0.05 
freq.     830.24  E(vib)   ...       0.04 
freq.     849.43  E(vib)   ...       0.04 
freq.     865.79  E(vib)   ...       0.04 
freq.     866.27  E(vib)   ...       0.04 
freq.     866.65  E(vib)   ...       0.04 
freq.     866.75  E(vib)   ...       0.04 
freq.     872.35  E(vib)   ...       0.04 
freq.     873.43  E(vib)   ...       0.04 
freq.     874.74  E(vib)   ...       0.04 
freq.     876.16  E(vib)   ...       0.04 
freq.     880.34  E(vib)   ...       0.04 
freq.     887.03  E(vib)   ...       0.04 
freq.     887.84  E(vib)   ...       0.04 
freq.     890.58  E(vib)   ...       0.04 
freq.     891.03  E(vib)   ...       0.04 
freq.     892.16  E(vib)   ...       0.03 
freq.     916.10  E(vib)   ...       0.03 
freq.     918.00  E(vib)   ...       0.03 
freq.     918.42  E(vib)   ...       0.03 
freq.     918.55  E(vib)   ...       0.03 
freq.     918.78  E(vib)   ...       0.03 
freq.     950.51  E(vib)   ...       0.03 
freq.     950.85  E(vib)   ...       0.03 
freq.     951.18  E(vib)   ...       0.03 
freq.     951.40  E(vib)   ...       0.03 
freq.     960.57  E(vib)   ...       0.03 
freq.     960.87  E(vib)   ...       0.03 
freq.     961.05  E(vib)   ...       0.03 
freq.     961.08  E(vib)   ...       0.03 
freq.     971.18  E(vib)   ...       0.03 
freq.     971.99  E(vib)   ...       0.03 
freq.     972.21  E(vib)   ...       0.03 
freq.     972.28  E(vib)   ...       0.03 
freq.     979.68  E(vib)   ...       0.03 
freq.     993.90  E(vib)   ...       0.02 
freq.     994.30  E(vib)   ...       0.02 
freq.     999.33  E(vib)   ...       0.02 
freq.    1001.23  E(vib)   ...       0.02 
freq.    1004.01  E(vib)   ...       0.02 
freq.    1005.56  E(vib)   ...       0.02 
freq.    1005.64  E(vib)   ...       0.02 
freq.    1008.63  E(vib)   ...       0.02 
freq.    1024.68  E(vib)   ...       0.02 
freq.    1028.11  E(vib)   ...       0.02 
freq.    1028.55  E(vib)   ...       0.02 
freq.    1046.70  E(vib)   ...       0.02 
freq.    1047.24  E(vib)   ...       0.02 
freq.    1054.69  E(vib)   ...       0.02 
freq.    1055.61  E(vib)   ...       0.02 
freq.    1057.08  E(vib)   ...       0.02 
freq.    1057.25  E(vib)   ...       0.02 
freq.    1058.70  E(vib)   ...       0.02 
freq.    1058.92  E(vib)   ...       0.02 
freq.    1062.73  E(vib)   ...       0.02 
freq.    1063.01  E(vib)   ...       0.02 
freq.    1063.68  E(vib)   ...       0.02 
freq.    1065.23  E(vib)   ...       0.02 
freq.    1069.60  E(vib)   ...       0.02 
freq.    1075.75  E(vib)   ...       0.02 
freq.    1076.06  E(vib)   ...       0.02 
freq.    1125.80  E(vib)   ...       0.01 
freq.    1131.96  E(vib)   ...       0.01 
freq.    1142.46  E(vib)   ...       0.01 
freq.    1152.93  E(vib)   ...       0.01 
freq.    1155.38  E(vib)   ...       0.01 
freq.    1159.21  E(vib)   ...       0.01 
freq.    1160.60  E(vib)   ...       0.01 
freq.    1164.38  E(vib)   ...       0.01 
freq.    1165.54  E(vib)   ...       0.01 
freq.    1192.03  E(vib)   ...       0.01 
freq.    1196.69  E(vib)   ...       0.01 
freq.    1197.24  E(vib)   ...       0.01 
freq.    1218.35  E(vib)   ...       0.01 
freq.    1224.09  E(vib)   ...       0.01 
freq.    1224.25  E(vib)   ...       0.01 
freq.    1231.55  E(vib)   ...       0.01 
freq.    1232.61  E(vib)   ...       0.01 
freq.    1251.20  E(vib)   ...       0.01 
freq.    1253.17  E(vib)   ...       0.01 
freq.    1253.74  E(vib)   ...       0.01 
freq.    1255.17  E(vib)   ...       0.01 
freq.    1255.22  E(vib)   ...       0.01 
freq.    1255.92  E(vib)   ...       0.01 
freq.    1255.94  E(vib)   ...       0.01 
freq.    1256.04  E(vib)   ...       0.01 
freq.    1257.22  E(vib)   ...       0.01 
freq.    1270.60  E(vib)   ...       0.01 
freq.    1272.76  E(vib)   ...       0.01 
freq.    1285.29  E(vib)   ...       0.01 
freq.    1287.16  E(vib)   ...       0.01 
freq.    1290.13  E(vib)   ...       0.01 
freq.    1299.02  E(vib)   ...       0.01 
freq.    1317.35  E(vib)   ...       0.01 
freq.    1321.07  E(vib)   ...       0.01 
freq.    1321.56  E(vib)   ...       0.01 
freq.    1322.37  E(vib)   ...       0.01 
freq.    1323.08  E(vib)   ...       0.01 
freq.    1329.18  E(vib)   ...       0.01 
freq.    1331.89  E(vib)   ...       0.01 
freq.    1338.13  E(vib)   ...       0.01 
freq.    1338.43  E(vib)   ...       0.01 
freq.    1351.47  E(vib)   ...       0.01 
freq.    1353.16  E(vib)   ...       0.01 
freq.    1359.98  E(vib)   ...       0.01 
freq.    1362.85  E(vib)   ...       0.01 
freq.    1376.88  E(vib)   ...       0.01 
freq.    1384.95  E(vib)   ...       0.00 
freq.    1385.29  E(vib)   ...       0.00 
freq.    1389.54  E(vib)   ...       0.00 
freq.    1414.74  E(vib)   ...       0.00 
freq.    1417.17  E(vib)   ...       0.00 
freq.    1420.13  E(vib)   ...       0.00 
freq.    1421.68  E(vib)   ...       0.00 
freq.    1423.32  E(vib)   ...       0.00 
freq.    1423.68  E(vib)   ...       0.00 
freq.    1423.80  E(vib)   ...       0.00 
freq.    1424.27  E(vib)   ...       0.00 
freq.    1424.60  E(vib)   ...       0.00 
freq.    1427.48  E(vib)   ...       0.00 
freq.    1432.58  E(vib)   ...       0.00 
freq.    1434.79  E(vib)   ...       0.00 
freq.    1436.42  E(vib)   ...       0.00 
freq.    1447.96  E(vib)   ...       0.00 
freq.    1452.60  E(vib)   ...       0.00 
freq.    1453.15  E(vib)   ...       0.00 
freq.    1453.29  E(vib)   ...       0.00 
freq.    1453.79  E(vib)   ...       0.00 
freq.    1455.71  E(vib)   ...       0.00 
freq.    1458.08  E(vib)   ...       0.00 
freq.    1464.58  E(vib)   ...       0.00 
freq.    1468.51  E(vib)   ...       0.00 
freq.    1473.40  E(vib)   ...       0.00 
freq.    1477.27  E(vib)   ...       0.00 
freq.    1499.26  E(vib)   ...       0.00 
freq.    1500.32  E(vib)   ...       0.00 
freq.    1501.25  E(vib)   ...       0.00 
freq.    1501.47  E(vib)   ...       0.00 
freq.    1501.54  E(vib)   ...       0.00 
freq.    1501.65  E(vib)   ...       0.00 
freq.    1504.32  E(vib)   ...       0.00 
freq.    1504.40  E(vib)   ...       0.00 
freq.    1504.56  E(vib)   ...       0.00 
freq.    1505.69  E(vib)   ...       0.00 
freq.    1505.75  E(vib)   ...       0.00 
freq.    1505.78  E(vib)   ...       0.00 
freq.    1507.72  E(vib)   ...       0.00 
freq.    1508.01  E(vib)   ...       0.00 
freq.    1508.18  E(vib)   ...       0.00 
freq.    1509.37  E(vib)   ...       0.00 
freq.    1519.54  E(vib)   ...       0.00 
freq.    1520.63  E(vib)   ...       0.00 
freq.    1522.80  E(vib)   ...       0.00 
freq.    1522.94  E(vib)   ...       0.00 
freq.    1523.85  E(vib)   ...       0.00 
freq.    1524.36  E(vib)   ...       0.00 
freq.    1526.68  E(vib)   ...       0.00 
freq.    1527.40  E(vib)   ...       0.00 
freq.    1527.43  E(vib)   ...       0.00 
freq.    1527.49  E(vib)   ...       0.00 
freq.    1536.29  E(vib)   ...       0.00 
freq.    1536.43  E(vib)   ...       0.00 
freq.    1538.78  E(vib)   ...       0.00 
freq.    1540.24  E(vib)   ...       0.00 
freq.    1541.29  E(vib)   ...       0.00 
freq.    1541.37  E(vib)   ...       0.00 
freq.    1568.68  E(vib)   ...       0.00 
freq.    1569.86  E(vib)   ...       0.00 
freq.    1580.30  E(vib)   ...       0.00 
freq.    1580.63  E(vib)   ...       0.00 
freq.    1597.37  E(vib)   ...       0.00 
freq.    1599.56  E(vib)   ...       0.00 
freq.    1621.06  E(vib)   ...       0.00 
freq.    1622.17  E(vib)   ...       0.00 
freq.    1629.81  E(vib)   ...       0.00 
freq.    1632.86  E(vib)   ...       0.00 
freq.    1648.09  E(vib)   ...       0.00 
freq.    1649.37  E(vib)   ...       0.00 
freq.    1655.02  E(vib)   ...       0.00 
freq.    1655.17  E(vib)   ...       0.00 
freq.    1694.76  E(vib)   ...       0.00 
freq.    1694.86  E(vib)   ...       0.00 
freq.    1706.84  E(vib)   ...       0.00 
freq.    1707.52  E(vib)   ...       0.00 
freq.    2204.04  E(vib)   ...       0.00 
freq.    2204.19  E(vib)   ...       0.00 
freq.    2303.89  E(vib)   ...       0.00 
freq.    2394.97  E(vib)   ...       0.00 
freq.    3064.67  E(vib)   ...       0.00 
freq.    3065.05  E(vib)   ...       0.00 
freq.    3065.44  E(vib)   ...       0.00 
freq.    3065.52  E(vib)   ...       0.00 
freq.    3065.70  E(vib)   ...       0.00 
freq.    3066.77  E(vib)   ...       0.00 
freq.    3066.81  E(vib)   ...       0.00 
freq.    3066.90  E(vib)   ...       0.00 
freq.    3070.70  E(vib)   ...       0.00 
freq.    3070.98  E(vib)   ...       0.00 
freq.    3071.57  E(vib)   ...       0.00 
freq.    3072.68  E(vib)   ...       0.00 
freq.    3072.77  E(vib)   ...       0.00 
freq.    3072.84  E(vib)   ...       0.00 
freq.    3133.54  E(vib)   ...       0.00 
freq.    3133.87  E(vib)   ...       0.00 
freq.    3137.98  E(vib)   ...       0.00 
freq.    3138.68  E(vib)   ...       0.00 
freq.    3139.47  E(vib)   ...       0.00 
freq.    3139.94  E(vib)   ...       0.00 
freq.    3139.95  E(vib)   ...       0.00 
freq.    3140.19  E(vib)   ...       0.00 
freq.    3140.33  E(vib)   ...       0.00 
freq.    3140.55  E(vib)   ...       0.00 
freq.    3143.79  E(vib)   ...       0.00 
freq.    3144.29  E(vib)   ...       0.00 
freq.    3144.34  E(vib)   ...       0.00 
freq.    3145.07  E(vib)   ...       0.00 
freq.    3146.05  E(vib)   ...       0.00 
freq.    3147.01  E(vib)   ...       0.00 
freq.    3147.04  E(vib)   ...       0.00 
freq.    3147.27  E(vib)   ...       0.00 
freq.    3150.67  E(vib)   ...       0.00 
freq.    3151.63  E(vib)   ...       0.00 
freq.    3151.93  E(vib)   ...       0.00 
freq.    3152.19  E(vib)   ...       0.00 
freq.    3154.00  E(vib)   ...       0.00 
freq.    3154.02  E(vib)   ...       0.00 
freq.    3154.17  E(vib)   ...       0.00 
freq.    3154.54  E(vib)   ...       0.00 
freq.    3160.07  E(vib)   ...       0.00 
freq.    3160.23  E(vib)   ...       0.00 
freq.    3210.94  E(vib)   ...       0.00 
freq.    3212.78  E(vib)   ...       0.00 
freq.    3213.42  E(vib)   ...       0.00 
freq.    3213.83  E(vib)   ...       0.00 
freq.    3217.53  E(vib)   ...       0.00 
freq.    3217.61  E(vib)   ...       0.00 
freq.    3227.50  E(vib)   ...       0.00 
freq.    3227.88  E(vib)   ...       0.00 
freq.    3229.02  E(vib)   ...       0.00 
freq.    3229.81  E(vib)   ...       0.00 
freq.    3241.25  E(vib)   ...       0.00 
freq.    3241.50  E(vib)   ...       0.00 
freq.    3241.65  E(vib)   ...       0.00 
freq.    3243.10  E(vib)   ...       0.00 
freq.    3244.24  E(vib)   ...       0.00 
freq.    3245.43  E(vib)   ...       0.00 
freq.    3252.54  E(vib)   ...       0.00 
freq.    3253.50  E(vib)   ...       0.00 
freq.    3276.83  E(vib)   ...       0.00 
freq.    3277.60  E(vib)   ...       0.00 
freq.    3502.90  E(vib)   ...       0.00 
freq.    3503.01  E(vib)   ...       0.00 

------------
INNER ENERGY
------------

The inner energy is: U= E(el) + E(ZPE) + E(vib) + E(rot) + E(trans)
    E(el)   - is the total energy from the electronic structure calculation
              = E(kin-el) + E(nuc-el) + E(el-el) + E(nuc-nuc)
    E(ZPE)  - the the zero temperature vibrational energy from the frequency calculation
    E(vib)  - the the finite temperature correction to E(ZPE) due to population
              of excited vibrational states
    E(rot)  - is the rotational thermal energy
    E(trans)- is the translational thermal energy

Summary of contributions to the inner energy U:
Electronic energy                ...  -2780.46075830 Eh
Zero point energy                ...      1.14396082 Eh     717.84 kcal/mol
Thermal vibrational correction   ...      0.06391097 Eh      40.10 kcal/mol
Thermal rotational correction    ...      0.00141627 Eh       0.89 kcal/mol
Thermal translational correction ...      0.00141627 Eh       0.89 kcal/mol
-----------------------------------------------------------------------
Total thermal energy                  -2779.25005397 Eh


Summary of corrections to the electronic energy:
(perhaps to be used in another calculation)
Total thermal correction                  0.06674351 Eh      41.88 kcal/mol
Non-thermal (ZPE) correction              1.14396082 Eh     717.84 kcal/mol
-----------------------------------------------------------------------
Total correction                          1.21070433 Eh     759.73 kcal/mol


--------
ENTHALPY
--------

The enthalpy is H = U + kB*T
                kB is Boltzmann's constant
Total free energy                 ...  -2779.25005397 Eh 
Thermal Enthalpy correction       ...      0.00094421 Eh       0.59 kcal/mol
-----------------------------------------------------------------------
Total Enthalpy                    ...  -2779.24910976 Eh


Note: Only C1 symmetry has been detected, increase convergence thresholds 
      if your molecule has a higher symmetry. Symmetry factor of 1.0 is   
      used for the rotational entropy correction. 
 

Note: Rotational entropy computed according to Herzberg 
Infrared and Raman Spectra, Chapter V,1, Van Nostrand Reinhold, 1945 
Point Group:  C1, Symmetry Number:   1  
Rotational constants in cm-1:     0.001097     0.000494     0.000399 

Vibrational entropy computed according to the QRRHO of S. Grimme
Chem.Eur.J. 2012 18 9955


-------
ENTROPY
-------

The entropy contributions are T*S = T*(S(el)+S(vib)+S(rot)+S(trans))
     S(el)   - electronic entropy
     S(vib)  - vibrational entropy
     S(rot)  - rotational entropy
     S(trans)- translational entropy
The entropies will be listed as multiplied by the temperature to get
units of energy

Electronic entropy                ...      0.00000000 Eh      0.00 kcal/mol
Vibrational entropy               ...      0.11522459 Eh     72.30 kcal/mol
Rotational entropy                ...      0.02001643 Eh     12.56 kcal/mol
Translational entropy             ...      0.02202849 Eh     13.82 kcal/mol
-----------------------------------------------------------------------
Final entropy term                ...      0.15726950 Eh     98.69 kcal/mol

In case the symmetry of your molecule has not been determined correctly
or in case you have a reason to use a different symmetry number we print 
out the resulting rotational entropy values for sn=1,12 :
 --------------------------------------------------------
|  sn= 1 | S(rot)=       0.02001643 Eh     12.56 kcal/mol|
|  sn= 2 | S(rot)=       0.01936197 Eh     12.15 kcal/mol|
|  sn= 3 | S(rot)=       0.01897914 Eh     11.91 kcal/mol|
|  sn= 4 | S(rot)=       0.01870751 Eh     11.74 kcal/mol|
|  sn= 5 | S(rot)=       0.01849683 Eh     11.61 kcal/mol|
|  sn= 6 | S(rot)=       0.01832468 Eh     11.50 kcal/mol|
|  sn= 7 | S(rot)=       0.01817913 Eh     11.41 kcal/mol|
|  sn= 8 | S(rot)=       0.01805306 Eh     11.33 kcal/mol|
|  sn= 9 | S(rot)=       0.01794185 Eh     11.26 kcal/mol|
|  sn=10 | S(rot)=       0.01784237 Eh     11.20 kcal/mol|
|  sn=11 | S(rot)=       0.01775238 Eh     11.14 kcal/mol|
|  sn=12 | S(rot)=       0.01767022 Eh     11.09 kcal/mol|
 --------------------------------------------------------


-------------------
GIBBS FREE ENERGY
-------------------

The Gibbs free energy is G = H - T*S

Total enthalpy                    ...  -2779.24910976 Eh 
Total entropy correction          ...     -0.15726950 Eh    -98.69 kcal/mol
-----------------------------------------------------------------------
Final Gibbs free energy         ...  -2779.40637926 Eh

For completeness - the Gibbs free energy minus the electronic energy
G-E(el)                           ...      1.05437904 Eh    661.63 kcal/mol

MPIWRAPPER IN -np 8 /gpfs/research/software/orca/orca_5_0_1_linux_x86-64_openmpi411/orca_util_mpi oby_singlet_uks_cam_b3lyp_631gdp_brsym orca_cleanup oby_singlet_uks_cam_b3lyp_631gdp_brsym
MPIWRAPPER OUT -n 8 /gpfs/research/software/orca/orca_5_0_1_linux_x86-64_openmpi411/orca_util_mpi oby_singlet_uks_cam_b3lyp_631gdp_brsym orca_cleanup oby_singlet_uks_cam_b3lyp_631gdp_brsym

Timings for individual modules:

Sum of individual times         ...    60092.158 sec (=1001.536 min)
GTO integral calculation        ...       31.127 sec (=   0.519 min)   0.1 %
SCF iterations                  ...     3580.376 sec (=  59.673 min)   6.0 %
Analytical frequency calculation...    56480.656 sec (= 941.344 min)  94.0 %
                             ****ORCA TERMINATED NORMALLY****
TOTAL RUN TIME: 0 days 16 hours 41 minutes 39 seconds 856 msec
