      -----------------------------------------------------------      
     |                   =====================                   |     
     |                           x T B                           |     
     |                   =====================                   |     
     |                         S. Grimme                         |     
     |          Mulliken Center for Theoretical Chemistry        |     
     |                    University of Bonn                     |     
      -----------------------------------------------------------      

   * xtb version 6.6.1 (8d0f1dd) compiled by 'conda@1efc2f54142f' on 2023-08-01

   xtb is free software: you can redistribute it and/or modify it under
   the terms of the GNU Lesser General Public License as published by
   the Free Software Foundation, either version 3 of the License, or
   (at your option) any later version.
   
   xtb is distributed in the hope that it will be useful,
   but WITHOUT ANY WARRANTY; without even the implied warranty of
   MERCHANTABILITY or FITNESS FOR A PARTICULAR PURPOSE.  See the
   GNU Lesser General Public License for more details.
   
   Cite this work as:
   * C. Bannwarth, E. Caldeweyher, S. Ehlert, A. Hansen, P. Pracht,
     J. Seibert, S. Spicher, S. Grimme, WIREs Comput. Mol. Sci., 2020, 11,
     e01493. DOI: 10.1002/wcms.1493
   
   for GFN2-xTB:
   * C. Bannwarth, S. Ehlert and S. Grimme., J. Chem. Theory Comput., 2019,
     15, 1652-1671. DOI: 10.1021/acs.jctc.8b01176
   for GFN1-xTB:
   * S. Grimme, C. Bannwarth, P. Shushkov, J. Chem. Theory Comput., 2017,
     13, 1989-2009. DOI: 10.1021/acs.jctc.7b00118
   for GFN0-xTB:
   * P. Pracht, E. Caldeweyher, S. Ehlert, S. Grimme, ChemRxiv, 2019, preprint.
     DOI: 10.26434/chemrxiv.8326202.v1
   for GFN-FF:
   * S. Spicher and S. Grimme, Angew. Chem. Int. Ed., 2020, 59, 15665-15673.
     DOI: 10.1002/anie.202004239
   
   for ALPB and GBSA implicit solvation:
   * S. Ehlert, M. Stahn, S. Spicher, S. Grimme, J. Chem. Theory Comput.,
     2021, 17, 4250-4261. DOI: 10.1021/acs.jctc.1c00471
   
   for DFT-D4:
   * E. Caldeweyher, C. Bannwarth and S. Grimme, J. Chem. Phys., 2017,
     147, 034112. DOI: 10.1063/1.4993215
   * E. Caldeweyher, S. Ehlert, A. Hansen, H. Neugebauer, S. Spicher,
     C. Bannwarth and S. Grimme, J. Chem. Phys., 2019, 150, 154122.
     DOI: 10.1063/1.5090222
   * E. Caldeweyher, J.-M. Mewes, S. Ehlert and S. Grimme, Phys. Chem. Chem. Phys.
     2020, 22, 8499-8512. DOI: 10.1039/D0CP00502A
   
   for sTDA-xTB:
   * S. Grimme and C. Bannwarth, J. Chem. Phys., 2016, 145, 054103.
     DOI: 10.1063/1.4959605
   
   in the mass-spec context:
   * V. Asgeirsson, C. Bauer and S. Grimme, Chem. Sci., 2017, 8, 4879.
     DOI: 10.1039/c7sc00601b
   * J. Koopman and S. Grimme, ACS Omega 2019, 4, 12, 15120-15133.
     DOI: 10.1021/acsomega.9b02011
   
   for metadynamics refer to:
   * S. Grimme, J. Chem. Theory Comput., 2019, 155, 2847-2862
     DOI: 10.1021/acs.jctc.9b00143
   
   for SPH calculations refer to:
   * S. Spicher and S. Grimme, J. Chem. Theory Comput., 2021, 17, 1701-1714
     DOI: 10.1021/acs.jctc.0c01306
   
   with help from (in alphabetical order)
   P. Atkinson, C. Bannwarth, F. Bohle, G. Brandenburg, E. Caldeweyher
   M. Checinski, S. Dohm, S. Ehlert, S. Ehrlich, I. Gerasimov, C. Hölzer
   A. Katbashev, J. Koopman, C. Lavigne, S. Lehtola, F. März, M. Müller,
   F. Musil, H. Neugebauer, J. Pisarek, C. Plett, P. Pracht, F. Pultar,
   J. Seibert, P. Shushkov, S. Spicher, M. Stahn, M. Steiner, T. Strunk,
   J. Stückrath, T. Rose, and J. Unsleber
   
 * started run on 2024/10/11 at 14:02:03.751     

           -------------------------------------------------
          |                Calculation Setup                |
           -------------------------------------------------

          program call               : xtb crest_conformers.xyz --gfn2 --opt --alpb water --ceasefiles
          hostname                   : hpc-d34-9-1
          coordinate file            : crest_conformers.xyz
          omp threads                :                     1

   ID    Z sym.   atoms
    1    8 O      1
    2    1 H      2

           -------------------------------------------------
          |                 G F N 2 - x T B                 |
           -------------------------------------------------

        Reference                      10.1021/acs.jctc.8b01176
      * Hamiltonian:
        H0-scaling (s, p, d)           1.850000    2.230000    2.230000
        zeta-weighting                 0.500000
      * Dispersion:
        s8                             2.700000
        a1                             0.520000
        a2                             5.000000
        s9                             5.000000
      * Repulsion:
        kExp                           1.500000    1.000000
        rExp                           1.000000
      * Coulomb:
        alpha                          2.000000
        third order                    shell-resolved
        anisotropic                    true
        a3                             3.000000
        a5                             4.000000
        cn-shift                       1.200000
        cn-exp                         4.000000
        max-rad                        5.000000

      * Solvation model:               ALPB
        Solvent                        water
        Parameter file                 internal GFN2-xTB/ALPB
        Dielectric constant                8.0200E+01
        Reference state                gsolv [1 M gas/solution]
        Free energy shift                  1.0808E-03 Eh       6.7819E-01 kcal/mol
        Temperature                        2.9815E+02 K
        Density                            1.0000E+00 kg/L
        Solvent mass                       1.8000E+01 g/mol
        Interaction kernel             P16
        Born radius scaling (c1)           1.4744E+00
        Born radii integrator          GBOBC
        Born offset                        0.0000E+00 a0       0.0000E+00 AA
        H-bond correction              true
        Ion screening                  false
        Surface tension                    1.0000E-05 Eh       1.5569E+01 dyn/cm
        Grid points                               230 per atom

          ...................................................
          :                      SETUP                      :
          :.................................................:
          :  # basis functions                   5          :
          :  # atomic orbitals                   5          :
          :  # shells                            3          :
          :  # electrons                         7          :
          :  max. iterations                   250          :
          :  Hamiltonian                  GFN2-xTB          :
          :  restarted?                      false          :
          :  GBSA solvation                   true          :
          :  PC potential                    false          :
          :  electronic temp.          300.0000000     K    :
          :  accuracy                    1.0000000          :
          :  -> integral cutoff          0.2500000E+02      :
          :  -> integral neglect         0.1000000E-07      :
          :  -> SCF convergence          0.1000000E-05 Eh   :
          :  -> wf. convergence          0.1000000E-03 e    :
          :  Broyden damping             0.4000000          :
          ...................................................

 iter      E             dE          RMSdq      gap      omega  full diag
   1     -4.4527705 -0.445277E+01  0.415E+00   17.77       0.0  T
   2     -4.4528299 -0.594006E-04  0.245E+00   17.63       1.0  T
   3     -4.4528623 -0.324536E-04  0.941E-02   17.40       1.0  T
   4     -4.4528631 -0.764427E-06  0.209E-02   17.42       3.4  T
   5     -4.4528631 -0.175259E-08  0.227E-03   17.42      31.2  T
   6     -4.4528631 -0.577778E-09  0.656E-04   17.42     107.9  T
   7     -4.4528631 -0.404876E-10  0.242E-06   17.42   29188.6  T

   *** convergence criteria satisfied after 7 iterations ***

         #    Occupation            Energy/Eh            Energy/eV
      -------------------------------------------------------------
         1        2.0000           -0.6977672             -18.9872
         2        2.0000           -0.5673233             -15.4377
         3        1.5000           -0.4905871             -13.3496
         4        1.5000           -0.4905871             -13.3496 (HOMO)
         5                          0.1495235               4.0687 (LUMO)
      -------------------------------------------------------------
                  HL-Gap            0.6401106 Eh           17.4183 eV
             Fermi-level           -0.3305595 Eh           -8.9950 eV

 SCC (total)                   0 d,  0 h,  0 min,  0.002 sec
 SCC setup                      ...        0 min,  0.000 sec ( 10.129%)
 Dispersion                     ...        0 min,  0.000 sec (  1.593%)
 classical contributions        ...        0 min,  0.000 sec (  0.682%)
 integral evaluation            ...        0 min,  0.000 sec (  5.950%)
 iterations                     ...        0 min,  0.001 sec ( 67.339%)
 molecular gradient             ...        0 min,  0.000 sec (  7.953%)
 printout                       ...        0 min,  0.000 sec (  5.516%)

         :::::::::::::::::::::::::::::::::::::::::::::::::::::
         ::                     SUMMARY                     ::
         :::::::::::::::::::::::::::::::::::::::::::::::::::::
         :: total energy              -4.438237292059 Eh    ::
         :: total w/o Gsasa/hb        -4.430432351887 Eh    ::
         :: gradient norm              0.000246565416 Eh/a0 ::
         :: HOMO-LUMO gap             17.418295726047 eV    ::
         ::.................................................::
         :: SCC energy                -4.452863105141 Eh    ::
         :: -> isotropic ES            0.026729302027 Eh    ::
         :: -> anisotropic ES         -0.004093326698 Eh    ::
         :: -> anisotropic XC         -0.000276339332 Eh    ::
         :: -> dispersion             -0.000044468327 Eh    ::
         :: -> Gsolv                  -0.014989283623 Eh    ::
         ::    -> Gelec               -0.007184343451 Eh    ::
         ::    -> Gsasa                0.003389280182 Eh    ::
         ::    -> Ghb                 -0.012274980052 Eh    ::
         ::    -> Gshift               0.001080759698 Eh    ::
         :: repulsion energy           0.014625813082 Eh    ::
         :: add. restraining           0.000000000000 Eh    ::
         :: total charge              -0.000000000000 e     ::
         :::::::::::::::::::::::::::::::::::::::::::::::::::::

      ----------------------------------------------------------- 
     |                   =====================                   |
     |                        A N C O P T                        |
     |                   =====================                   |
     |               Approximate Normal Coordinate               |
     |                Rational Function Optimizer                |
      ----------------------------------------------------------- 

Optimization log is written to '/dev/null'

          ...................................................
          :                      SETUP                      :
          :.................................................:
          :   optimization level            normal          :
          :   max. optcycles                   200          :
          :   ANC micro-cycles                  20          :
          :   degrees of freedom                 1          :
          :.................................................:
          :   RF solver                   davidson          :
          :   write xtbopt.log                true          :
          :   linear (good luck)              true          :
          :   energy convergence         0.5000000E-05 Eh   :
          :   grad. convergence          0.1000000E-02 Eh/α :
          :   maxmium RF displ.          1.0000000          :
          :   Hlow (freq-cutoff)         0.1000000E-01      :
          :   Hmax (freq-cutoff)         5.0000000          :
          :   S6 in model hess.         20.0000000          :
          ...................................................

generating ANC from model Hessian ...
Using Lindh-Hessian (1995)
 Shifting diagonal of input Hessian by    0.0000000000000000     
 Lowest  eigenvalues of input Hessian
    0.000000    0.000000    0.000000    0.000000    0.000000    1.196967
 Highest eigenvalues
    0.000000    0.000000    0.000000    0.000000    0.000000    1.196967


........................................................................
.............................. CYCLE    1 ..............................
........................................................................

 iter      E             dE          RMSdq      gap      omega  full diag
   1     -4.4528631 -0.445286E+01  0.450E-07   17.42       0.0  T
   2     -4.4528631  0.150990E-13  0.271E-07   17.42  100000.0  T
   3     -4.4528631 -0.177636E-13  0.384E-08   17.42  100000.0  T
     SCC iter.                  ...        0 min,  0.000 sec
     gradient                   ...        0 min,  0.000 sec
 * total energy  :    -4.4382373 Eh     change        0.0000000E+00 Eh
   gradient norm :     0.0002466 Eh/α   predicted     0.0000000E+00 (    NaN%)
   displ. norm   :     0.0003090 α      lambda       -0.4964810E-07
   maximum displ.:     0.0003090 α      in ANC's #1, #1, #1, ...

........................................................................
.............................. CYCLE    2 ..............................
........................................................................

 iter      E             dE          RMSdq      gap      omega  full diag
   1     -4.4528951 -0.445290E+01  0.124E-03   17.43       0.0  T
   2     -4.4528951 -0.714104E-10  0.748E-04   17.43      94.5  T
   3     -4.4528951 -0.556977E-10  0.114E-04   17.43     618.5  T
     SCC iter.                  ...        0 min,  0.000 sec
     gradient                   ...        0 min,  0.000 sec
 * total energy  :    -4.4382373 Eh     change       -0.3631526E-07 Eh
   gradient norm :     0.0000128 Eh/α   predicted    -0.2539621E-07 ( -30.07%)
   displ. norm   :     0.0000152 α      lambda       -0.4189045E-08
   maximum displ.:     0.0000152 α      in ANC's #1, #1, #1, ...

   *** GEOMETRY OPTIMIZATION CONVERGED AFTER 2 ITERATIONS ***

------------------------------------------------------------------------
 total energy gain   :        -0.0000000 Eh       -0.0000 kcal/mol
 total RMSD          :         0.0002185 a0        0.0001 Å
 total power (kW/mol):        -0.0000477 (step)   -0.0472 (real)
------------------------------------------------------------------------

 ANCopt (total)                0 d,  0 h,  0 min,  0.002 sec
 optimizer setup                ...        0 min,  0.000 sec (  5.972%)
 model hessian                  ...        0 min,  0.000 sec (  1.443%)
 ANC generation                 ...        0 min,  0.000 sec (  2.400%)
 coordinate transformation      ...        0 min,  0.000 sec (  0.367%)
 single point calculation       ...        0 min,  0.001 sec ( 70.237%)
 optimization log               ...        0 min,  0.000 sec (  4.870%)
 hessian update                 ...        0 min,  0.000 sec (  0.762%)
 rational function              ...        0 min,  0.000 sec (  5.613%)

================
 final structure:
================
2
 xtb: 6.6.1 (8d0f1dd)
O            0.11368148223621       -0.00000000000001        0.00000000000001
H           -0.86036516283621       -0.00000000009999        0.00000000009999

 Bond Distances (Angstroems)
 ---------------------------
O1-H2=0.9740         H2-O1=0.9740         
 O  H  Rav=0.9740 sigma=0.0000  Rmin=0.9740  Rmax=0.9740     1

 selected bond angles (degree)
 --------------------


 selected dihedral angles (degree)
 ---------------------------------

           -------------------------------------------------
          |                Final Singlepoint                |
           -------------------------------------------------

          ...................................................
          :                      SETUP                      :
          :.................................................:
          :  # basis functions                   5          :
          :  # atomic orbitals                   5          :
          :  # shells                            3          :
          :  # electrons                         7          :
          :  max. iterations                   250          :
          :  Hamiltonian                  GFN2-xTB          :
          :  restarted?                      false          :
          :  GBSA solvation                   true          :
          :  PC potential                    false          :
          :  electronic temp.          300.0000000     K    :
          :  accuracy                    1.0000000          :
          :  -> integral cutoff          0.2500000E+02      :
          :  -> integral neglect         0.1000000E-07      :
          :  -> SCF convergence          0.1000000E-05 Eh   :
          :  -> wf. convergence          0.1000000E-03 e    :
          :  Broyden damping             0.4000000          :
          ...................................................

 iter      E             dE          RMSdq      gap      omega  full diag
   1     -4.4528951 -0.445290E+01  0.537E-06   17.43       0.0  T
   2     -4.4528951  0.976996E-14  0.287E-06   17.43   24623.7  T
   3     -4.4528951 -0.106581E-13  0.195E-07   17.43  100000.0  T

   *** convergence criteria satisfied after 3 iterations ***

         #    Occupation            Energy/Eh            Energy/eV
      -------------------------------------------------------------
         1        2.0000           -0.6977880             -18.9878
         2        2.0000           -0.5673415             -15.4381
         3        1.5000           -0.4906032             -13.3500
         4        1.5000           -0.4906032             -13.3500 (HOMO)
         5                          0.1499016               4.0790 (LUMO)
      -------------------------------------------------------------
                  HL-Gap            0.6405048 Eh           17.4290 eV
             Fermi-level           -0.3304770 Eh           -8.9927 eV

 SCC (total)                   0 d,  0 h,  0 min,  0.001 sec
 SCC setup                      ...        0 min,  0.000 sec ( 16.595%)
 Dispersion                     ...        0 min,  0.000 sec (  1.847%)
 classical contributions        ...        0 min,  0.000 sec (  0.988%)
 integral evaluation            ...        0 min,  0.000 sec ( 12.848%)
 iterations                     ...        0 min,  0.000 sec ( 39.029%)
 molecular gradient             ...        0 min,  0.000 sec ( 15.409%)
 printout                       ...        0 min,  0.000 sec ( 10.547%)

         :::::::::::::::::::::::::::::::::::::::::::::::::::::
         ::                     SUMMARY                     ::
         :::::::::::::::::::::::::::::::::::::::::::::::::::::
         :: total energy              -4.438237328376 Eh    ::
         :: total w/o Gsasa/hb        -4.430435242991 Eh    ::
         :: gradient norm              0.000011581255 Eh/a0 ::
         :: HOMO-LUMO gap             17.429023542566 eV    ::
         ::.................................................::
         :: SCC energy                -4.452895129004 Eh    ::
         :: -> isotropic ES            0.026718899868 Eh    ::
         :: -> anisotropic ES         -0.004092200033 Eh    ::
         :: -> anisotropic XC         -0.000277272355 Eh    ::
         :: -> dispersion             -0.000044470234 Eh    ::
         :: -> Gsolv                  -0.014982535132 Eh    ::
         ::    -> Gelec               -0.007180449746 Eh    ::
         ::    -> Gsasa                0.003389259865 Eh    ::
         ::    -> Ghb                 -0.012272104949 Eh    ::
         ::    -> Gshift               0.001080759698 Eh    ::
         :: repulsion energy           0.014657800627 Eh    ::
         :: add. restraining           0.000000000000 Eh    ::
         :: total charge              -0.000000000000 e     ::
         :::::::::::::::::::::::::::::::::::::::::::::::::::::

           -------------------------------------------------
          |                Property Printout                |
           -------------------------------------------------

    * Orbital Energies and Occupations

         #    Occupation            Energy/Eh            Energy/eV
      -------------------------------------------------------------
         1        2.0000           -0.6977880             -18.9878
         2        2.0000           -0.5673415             -15.4381
         3        1.5000           -0.4906032             -13.3500
         4        1.5000           -0.4906032             -13.3500 (HOMO)
         5                          0.1499016               4.0790 (LUMO)
      -------------------------------------------------------------
                  HL-Gap            0.6405048 Eh           17.4290 eV
             Fermi-level           -0.3304770 Eh           -8.9927 eV

     #   Z          covCN         q      C6AA      α(0)
     1   8 O        0.804    -0.449    22.718     6.389
     2   1 H        0.804     0.449     0.404     0.998

 Mol. C6AA /au·bohr⁶  :         29.060322
 Mol. C8AA /au·bohr⁸  :        556.099071
 Mol. α(0) /au        :          7.387002


molecular dipole:
                 x           y           z       tot (Debye)
 q only:       -0.827      -0.000       0.000
   full:       -0.962      -0.000       0.000       2.445
molecular quadrupole (traceless):
                xx          xy          yy          xz          yz          zz
 q only:        1.167       0.000      -0.584      -0.000      -0.000      -0.584
  q+dip:        1.394       0.000      -0.697      -0.000      -0.000      -0.697
   full:        1.229       0.000      -0.615      -0.000      -0.000      -0.615

           -------------------------------------------------
          |                Geometry Summary                 |
           -------------------------------------------------

      molecular mass/u    :       17.0073457
   center of mass at/Å    :        0.0559546      -0.0000000       0.0000000
  moments of inertia/u·Å² :       -0.9477552E-20   0.8996258E+00   0.8996258E+00
rotational constants/cm⁻¹ :       -0.1778690E+22   0.1873849E+02   0.1873849E+02


optimized geometry written to: xtbopt.xyz


           -------------------------------------------------
          | TOTAL ENERGY               -4.438237328376 Eh   |
          | GRADIENT NORM               0.000011581255 Eh/α |
          | HOMO-LUMO GAP              17.429023542566 eV   |
           -------------------------------------------------

------------------------------------------------------------------------
 * finished run on 2024/10/11 at 14:02:03.770     
------------------------------------------------------------------------
 total:
 * wall-time:     0 d,  0 h,  0 min,  0.018 sec
 *  cpu-time:     0 d,  0 h,  0 min,  0.013 sec
 * ratio c/w:     0.719 speedup
 SCF:
 * wall-time:     0 d,  0 h,  0 min,  0.002 sec
 *  cpu-time:     0 d,  0 h,  0 min,  0.002 sec
 * ratio c/w:     0.991 speedup
 ANC optimizer:
 * wall-time:     0 d,  0 h,  0 min,  0.006 sec
 *  cpu-time:     0 d,  0 h,  0 min,  0.003 sec
 * ratio c/w:     0.505 speedup

