2
 energy: -4.438237328376 gnorm: 0.000011581255 xtb: 6.6.1 (8d0f1dd)
O            0.11368148223621       -0.00000000000001        0.00000000000001
H           -0.86036516283621       -0.00000000009999        0.00000000009999
