2
 energy: -4.428374988741 gnorm: 0.000018044323 xtb: 6.6.1 (8d0f1dd)
O            0.10831326774922       -0.00000000000001        0.00000000000001
H           -0.85499694844922       -0.00000000009999        0.00000000009999
