1
 energy: -3.769421097051 gnorm: 0.000000000000 xtb: 6.6.1 (8d0f1dd)
O            0.00000000000000        0.00000000000000        0.00000000000000
